 
             +---------------------------------------------------+
             |                                                   |
             |                   WANNIER90                       |
             |                                                   |
             +---------------------------------------------------+
             |                                                   |
             |        Welcome to the Maximally-Localized         |
             |        Generalized Wannier Functions code         |
             |            http://www.wannier.org                 |
             |                                                   |
             |                                                   |
             |  Wannier90 Developer Group:                       |
             |    Giovanni Pizzi    (EPFL)                       |
             |    Valerio Vitale    (Cambridge)                  |
             |    David Vanderbilt  (Rutgers University)         |
             |    Nicola Marzari    (EPFL)                       |
             |    Ivo Souza         (Universidad del Pais Vasco) |
             |    Arash A. Mostofi  (Imperial College London)    |
             |    Jonathan R. Yates (University of Oxford)       |
             |                                                   |
             |  For the full list of Wannier90 3.x authors,      |
             |  please check the code documentation and the      |
             |  README on the GitHub page of the code            |
             |                                                   |
             |                                                   |
             |  Please cite                                      |
             |                                                   |
             |  [ref] "Wannier90 as a community code:            |
             |        new features and applications",            |
             |        G. Pizzi et al., J. Phys. Cond. Matt. 32,  |
             |        165902 (2020).                             |
             |        http://doi.org/10.1088/1361-648X/ab51ff    |
             |                                                   |
             |  in any publications arising from the use of      |
             |  this code. For the method please cite            |
             |                                                   |
             |  [ref] "Maximally Localized Generalised Wannier   |
             |         Functions for Composite Energy Bands"     |
             |         N. Marzari and D. Vanderbilt              |
             |         Phys. Rev. B 56 12847 (1997)              |
             |                                                   |
             |  [ref] "Maximally Localized Wannier Functions     |
             |         for Entangled Energy Bands"               |
             |         I. Souza, N. Marzari and D. Vanderbilt    |
             |         Phys. Rev. B 65 035109 (2001)             |
             |                                                   |
             |                                                   |
             | Copyright (c) 1996-2020                           |
             |        The Wannier90 Developer Group and          |
             |        individual contributors                    |
             |                                                   |
             |      Release: 3.1.0        5th March    2020      |
             |                                                   |
             | This program is free software; you can            |
             | redistribute it and/or modify it under the terms  |
             | of the GNU General Public License as published by |
             | the Free Software Foundation; either version 2 of |
             | the License, or (at your option) any later version|
             |                                                   |
             | This program is distributed in the hope that it   |
             | will be useful, but WITHOUT ANY WARRANTY; without |
             | even the implied warranty of MERCHANTABILITY or   |
             | FITNESS FOR A PARTICULAR PURPOSE. See the GNU     |
             | General Public License for more details.          |
             |                                                   |
             | You should have received a copy of the GNU General|
             | Public License along with this program; if not,   |
             | write to the Free Software Foundation, Inc.,      |
             | 675 Mass Ave, Cambridge, MA 02139, USA.           |
             |                                                   |
             +---------------------------------------------------+
             |    Execution started on 16Feb2026 at 13:13:08     |
             +---------------------------------------------------+
 
 ******************************************************************************
 * -> Using CODATA 2006 constant values                                       *
 *    (http://physics.nist.gov/cuu/Constants/index.html)                      *
 * -> Using Bohr value from CODATA                                            *
 ******************************************************************************
 

 Running in serial (with serial executable)
 
                                    ------
                                    SYSTEM
                                    ------
 
                              Lattice Vectors (Ang)
                    a_1     3.180415   0.000000   0.000000
                    a_2    -1.590208   2.754319   0.000000
                    a_3     0.000000   0.000000  20.000000
 
                   Unit Cell Volume:     175.19757  (Ang^3)
 
                        Reciprocal-Space Vectors (Ang^-1)
                    b_1     1.975586   1.140606   0.000000
                    b_2     0.000000   2.281212   0.000000
                    b_3     0.000000   0.000000   0.314159
  
 *----------------------------------------------------------------------------*
 |   Site       Fractional Coordinate          Cartesian Coordinate (Ang)     |
 +----------------------------------------------------------------------------+
 | Mo   1   0.00049  -0.00009   0.15101   |    0.00172  -0.00026   3.02025    |
 | S    1   0.66689   0.33306   0.07285   |    1.59135   0.91734   1.45698    |
 | S    2   0.66753   0.33343   0.22908   |    1.59280   0.91837   4.58157    |
 *----------------------------------------------------------------------------*
                                ------------
                                K-POINT GRID
                                ------------
  
             Grid size = 15 x 15 x  1      Total points =  225
  
  
 *---------------------------------- MAIN ------------------------------------*
 |  Number of Wannier Functions               :                11             |
 |  Number of Objective Wannier Functions     :                11             |
 |  Number of input Bloch states              :                40             |
 |  Output verbosity (1=low, 5=high)          :                 1             |
 |  Timing Level (1=low, 5=high)              :                 1             |
 |  Optimisation (0=memory, 3=speed)          :                 3             |
 |  Length Unit                               :               Ang             |
 |  Post-processing setup (write *.nnkp)      :                 F             |
 |  Using Gamma-only branch of algorithms     :                 F             |
 |  Wavefunction (UNK) file-type              :       unformatted             |
 |  Wavefunction spin channel                 :                up             |
 *----------------------------------------------------------------------------*
 *------------------------------- WANNIERISE ---------------------------------*
 |  Total number of iterations                :              1000             |
 |  Number of CG steps before reset           :                 5             |
 |  Trial step length for line search         :             2.000             |
 |  Convergence tolerence                     :         0.100E-05             |
 |  Convergence window                        :                -1             |
 |  Iterations between writing output         :                 1             |
 |  Iterations between backing up to disk     :               100             |
 |  Write r^2_nm to file                      :                 F             |
 |  Write xyz WF centres to file              :                 T             |
 |  Write on-site energies <0n|H|0n> to file  :                 F             |
 |  Use guiding centre to control phases      :                 F             |
 |  Use phases for initial projections        :                 F             |
 *----------------------------------------------------------------------------*
 *------------------------------- DISENTANGLE --------------------------------*
 |  Using band disentanglement                :                 T             |
 |  Total number of iterations                :               300             |
 |  Mixing ratio                              :             0.500             |
 |  Convergence tolerence                     :         1.000E-08             |
 |  Convergence window                        :                 3             |
 *----------------------------------------------------------------------------*
 *-------------------------------- PLOTTING ----------------------------------*
 |  Plotting Wannier functions                :                 T             |
 |   Size of supercell for plotting           :     2x    2x    1             |
 |   Plotting mode (molecule or crystal)      :           crystal             |
 |   Plotting format                          :          xcrysden             |
 *----------------------------------------------------------------------------*
 |  Plotting interpolated bandstructure       :                 T             |
 |   Number of K-path sections                :                 3             |
 |   Divisions along first K-path section     :               100             |
 |   Output format                            :           gnuplot             |
 |   Output mode                              :               s-k             |
 *----------------------------------------------------------------------------*
 |   K-space path sections:                                                   |
 |    From: G       0.000  0.000  0.000     To: M       0.500  0.000  0.000   |
 |    From: M       0.500  0.000  0.000     To: K       0.667 -0.333  0.000   |
 |    From: K       0.667 -0.333  0.000     To: G       0.000  0.000  0.000   |
 *----------------------------------------------------------------------------*
 |  Plotting Hamiltonian in WF basis          :                 T             |
 *----------------------------------------------------------------------------*
 Time to read parameters        0.033 (sec)

 *---------------------------------- K-MESH ----------------------------------*
 +----------------------------------------------------------------------------+
 |                    Distance to Nearest-Neighbour Shells                    |
 |                    ------------------------------------                    |
 |          Shell             Distance (Ang^-1)          Multiplicity         |
 |          -----             -----------------          ------------         |
 |             1                   0.152081                      6            |
 |             2                   0.263412                      6            |
 |             3                   0.304162                      6            |
 |             4                   0.314159                      2            |
 |             5                   0.349034                     12            |
 |             6                   0.402368                     12            |
 |             7                   0.409978                     12            |
 |             8                   0.437276                     12            |
 |             9                   0.456242                      6            |
 |            10                   0.510486                     24            |
 |            11                   0.526823                      6            |
 |            12                   0.548335                     12            |
 |            13                   0.553943                     12            |
 |            14                   0.608323                      6            |
 |            15                   0.613383                     12            |
 |            16                   0.628319                      2            |
 |            17                   0.631955                     24            |
 |            18                   0.646462                     12            |
 |            19                   0.662905                     12            |
 |            20                   0.681300                     12            |
 |            21                   0.684655                     12            |
 |            22                   0.696922                     12            |
 |            23                   0.698068                     12            |
 |            24                   0.733579                     24            |
 |            25                   0.746113                     24            |
 |            26                   0.760404                      6            |
 |            27                   0.764458                     24            |
 |            28                   0.776493                     12            |
 |            29                   0.790235                      6            |
 |            30                   0.804736                     12            |
 |            31                   0.819955                     12            |
 |            32                   0.822746                     12            |
 |            33                   0.833940                     24            |
 |            34                   0.846750                     12            |
 |            35                   0.850392                     12            |
 |            36                   0.863884                     24            |
 +----------------------------------------------------------------------------+
 | The b-vectors are chosen automatically                                     |
 | SVD found small singular value, Rejecting this shell and trying the next   |
 | The following shells are used:   1,  4                                     |
 +----------------------------------------------------------------------------+
 |                        Shell   # Nearest-Neighbours                        |
 |                        -----   --------------------                        |
 |                          1               6                                 |
 |                          4               2                                 |
 +----------------------------------------------------------------------------+
 | Completeness relation is fully satisfied [Eq. (B1), PRB 56, 12847 (1997)]  |
 +----------------------------------------------------------------------------+
 |                  b_k Vectors (Ang^-1) and Weights (Ang^2)                  |
 |                  ----------------------------------------                  |
 |            No.         b_k(x)      b_k(y)      b_k(z)        w_b           |
 |            ---        --------------------------------     --------        |
 |             1         0.000000    0.152081    0.000000    14.412197        |
 |             2         0.131706    0.076040    0.000000    14.412197        |
 |             3        -0.131706   -0.076040    0.000000    14.412197        |
 |             4        -0.131706    0.076040    0.000000    14.412197        |
 |             5         0.000000   -0.152081    0.000000    14.412197        |
 |             6         0.131706   -0.076040    0.000000    14.412197        |
 |             7         0.000000    0.000000    0.314159     5.066059        |
 |             8         0.000000    0.000000   -0.314159     5.066059        |
 +----------------------------------------------------------------------------+
 |                           b_k Directions (Ang^-1)                          |
 |                           -----------------------                          |
 |            No.           x           y           z                         |
 |            ---        --------------------------------                     |
 |             1         0.000000    0.152081    0.000000                     |
 |             2         0.131706    0.076040    0.000000                     |
 |             3        -0.131706    0.076040    0.000000                     |
 |             4         0.000000    0.000000    0.314159                     |
 +----------------------------------------------------------------------------+
  
 Time to get kmesh              0.088 (sec)
 *============================================================================*
 |                              MEMORY ESTIMATE                               |
 |         Maximum RAM allocated during each phase of the calculation         |
 *============================================================================*
 |                        Disentanglement           58.74 Mb                  |
 |                            Wannierise:           10.75 Mb                  |
 |                          plot_wannier:           10.75 Mb                  |
 *----------------------------------------------------------------------------*
  
 Starting a new Wannier90 calculation ...


 Reading overlaps from d.mmn    :  Created on 16Feb2026 at 13:10:36

 Reading projections from d.amn :  Created on 16Feb2026 at 13:10:24

 Time to read overlaps          2.030 (sec)

 *------------------------------- DISENTANGLE --------------------------------*
 +----------------------------------------------------------------------------+
 |                              Energy  Windows                               |
 |                              ---------------                               |
 |                   Outer:   -8.00000  to    6.00000  (eV)                   |
 |                   Inner:   -7.80000  to    4.00000  (eV)                   |
 +----------------------------------------------------------------------------+
   Number of target bands to extract:   11

                   Unitarised projection of Wannier functions                  
                   ------------------------------------------                  
   A_mn = <psi_m|g_n> --> S = A.A^+ --> U = S^-1/2.A
   In dis_project... done
   Using an inner window (linner = T)
   In dis_proj_froz... done

                   Extraction of optimally-connected subspace                  
                   ------------------------------------------                  
 +---------------------------------------------------------------------+<-- DIS
 |  Iter     Omega_I(i-1)      Omega_I(i)      Delta (frac.)    Time   |<-- DIS
 +---------------------------------------------------------------------+<-- DIS
       1      17.73007328      17.73007328       2.220E-16      0.00    <-- DIS
       2      17.73007328      17.73007328       2.220E-16      0.01    <-- DIS
       3      17.73007328      17.73007328       2.220E-16      0.01    <-- DIS

             <<<      Delta < 1.000E-08  over  3 iterations     >>>
             <<< Disentanglement convergence criteria satisfied >>>

        Final Omega_I    17.73007328 (Ang^2)

 +----------------------------------------------------------------------------+

 Time to disentangle bands      0.050 (sec)

 Writing checkpoint file d.chk... done

 
 *------------------------------- WANNIERISE ---------------------------------*
 +--------------------------------------------------------------------+<-- CONV
 | Iter  Delta Spread     RMS Gradient      Spread (Ang^2)      Time  |<-- CONV
 +--------------------------------------------------------------------+<-- CONV
 
 ------------------------------------------------------------------------------
 Initial State
  WF centre and spread    1  ( -0.000157,  0.000102,  3.020314 )     1.51516039
  WF centre and spread    2  (  0.000047,  0.038874,  3.020233 )     1.77325635
  WF centre and spread    3  ( -0.000273, -0.038847,  3.020173 )     1.77202920
  WF centre and spread    4  (  0.000012,  0.093606,  3.020254 )     1.66906874
  WF centre and spread    5  ( -0.000160, -0.093565,  3.020253 )     1.66905145
  WF centre and spread    6  (  1.591203,  0.917393,  1.360379 )     1.84109399
  WF centre and spread    7  (  1.591347,  0.907265,  1.499287 )     1.72315412
  WF centre and spread    8  (  1.591310,  0.927472,  1.499253 )     1.72299082
  WF centre and spread    9  (  1.591287,  0.917452,  4.680127 )     1.84011113
  WF centre and spread   10  (  1.591365,  0.907327,  4.541185 )     1.72259316
  WF centre and spread   11  (  1.591357,  0.927459,  4.541225 )     1.72224372
  Sum of centres and spreads (  9.547338,  5.504538, 33.222683 )    18.97075308
 
      0     0.190E+02     0.0000000000       18.9707463333       0.04  <-- CONV
        O_D=      0.0333280 O_OD=      1.2073451 O_TOT=     18.9707463 <-- SPRD
 ------------------------------------------------------------------------------
 Cycle:      1
  WF centre and spread    1  ( -0.000177,  0.000102,  3.020292 )     1.52384784
  WF centre and spread    2  (  0.000024,  0.040242,  3.020237 )     1.78547512
  WF centre and spread    3  ( -0.000262, -0.040311,  3.020208 )     1.78403009
  WF centre and spread    4  ( -0.000005,  0.101935,  3.020254 )     1.67830918
  WF centre and spread    5  ( -0.000200, -0.101765,  3.020255 )     1.67827705
  WF centre and spread    6  (  1.591241,  0.917353,  1.356630 )     1.80086075
  WF centre and spread    7  (  1.591359,  0.906763,  1.499810 )     1.70822634
  WF centre and spread    8  (  1.591328,  0.928042,  1.499776 )     1.70849988
  WF centre and spread    9  (  1.591291,  0.917388,  4.683872 )     1.80038129
  WF centre and spread   10  (  1.591356,  0.906792,  4.540671 )     1.70793912
  WF centre and spread   11  (  1.591350,  0.928027,  4.540713 )     1.70807135
  Sum of centres and spreads (  9.547306,  5.504569, 33.222718 )    18.88391801
 
      1    -0.868E-01     0.1622527677       18.8839112686       0.06  <-- CONV
        O_D=      0.0339543 O_OD=      1.1198837 O_TOT=     18.8839113 <-- SPRD
 Delta: O_D=  0.6263317E-03 O_OD= -0.8746140E-01 O_TOT= -0.8683506E-01 <-- DLTA
 ------------------------------------------------------------------------------
 Cycle:      2
  WF centre and spread    1  ( -0.000187,  0.000106,  3.020277 )     1.52866490
  WF centre and spread    2  (  0.000021,  0.041635,  3.020241 )     1.79948910
  WF centre and spread    3  ( -0.000253, -0.041761,  3.020227 )     1.79789360
  WF centre and spread    4  ( -0.000007,  0.106862,  3.020252 )     1.68537266
  WF centre and spread    5  ( -0.000219, -0.106591,  3.020254 )     1.68534247
  WF centre and spread    6  (  1.591258,  0.917311,  1.354751 )     1.77642074
  WF centre and spread    7  (  1.591361,  0.906424,  1.500319 )     1.69792202
  WF centre and spread    8  (  1.591336,  0.928430,  1.500284 )     1.69844208
  WF centre and spread    9  (  1.591288,  0.917331,  4.685752 )     1.77619694
  WF centre and spread   10  (  1.591350,  0.906437,  4.540167 )     1.69778564
  WF centre and spread   11  (  1.591345,  0.928416,  4.540214 )     1.69818357
  Sum of centres and spreads (  9.547296,  5.504601, 33.222738 )    18.84171371
 
      2    -0.422E-01     0.2094564161       18.8417069608       0.08  <-- CONV
        O_D=      0.0333708 O_OD=      1.0782629 O_TOT=     18.8417070 <-- SPRD
 Delta: O_D= -0.5835334E-03 O_OD= -0.4162077E-01 O_TOT= -0.4220431E-01 <-- DLTA
 ------------------------------------------------------------------------------
 Cycle:      3
  WF centre and spread    1  ( -0.000192,  0.000110,  3.020267 )     1.53264092
  WF centre and spread    2  (  0.000027,  0.042956,  3.020244 )     1.81234808
  WF centre and spread    3  ( -0.000244, -0.043120,  3.020238 )     1.81063387
  WF centre and spread    4  ( -0.000005,  0.110324,  3.020251 )     1.69196082
  WF centre and spread    5  ( -0.000228, -0.109953,  3.020252 )     1.69195287
  WF centre and spread    6  (  1.591266,  0.917265,  1.353700 )     1.75909548
  WF centre and spread    7  (  1.591359,  0.906126,  1.500691 )     1.68907273
  WF centre and spread    8  (  1.591340,  0.928763,  1.500653 )     1.68976673
  WF centre and spread    9  (  1.591283,  0.917276,  4.686805 )     1.75901574
  WF centre and spread   10  (  1.591343,  0.906129,  4.539801 )     1.68902344
  WF centre and spread   11  (  1.591342,  0.928750,  4.539851 )     1.68962452
  Sum of centres and spreads (  9.547292,  5.504625, 33.222752 )    18.81513521
 
      3    -0.266E-01     0.1894354704       18.8151284678       0.10  <-- CONV
        O_D=      0.0325626 O_OD=      1.0524926 O_TOT=     18.8151285 <-- SPRD
 Delta: O_D= -0.8081609E-03 O_OD= -0.2577033E-01 O_TOT= -0.2657849E-01 <-- DLTA
 ------------------------------------------------------------------------------
 Cycle:      4
  WF centre and spread    1  ( -0.000194,  0.000111,  3.020261 )     1.53540124
  WF centre and spread    2  (  0.000034,  0.043879,  3.020246 )     1.82138127
  WF centre and spread    3  ( -0.000237, -0.044061,  3.020243 )     1.81960026
  WF centre and spread    4  ( -0.000003,  0.112251,  3.020250 )     1.69608547
  WF centre and spread    5  ( -0.000232, -0.111803,  3.020251 )     1.69611875
  WF centre and spread    6  (  1.591268,  0.917227,  1.353273 )     1.74938878
  WF centre and spread    7  (  1.591356,  0.905945,  1.500841 )     1.68322723
  WF centre and spread    8  (  1.591341,  0.928959,  1.500801 )     1.68401908
  WF centre and spread    9  (  1.591279,  0.917234,  4.687232 )     1.74936872
  WF centre and spread   10  (  1.591339,  0.905945,  4.539654 )     1.68321159
  WF centre and spread   11  (  1.591340,  0.928946,  4.539705 )     1.68394389
  Sum of centres and spreads (  9.547290,  5.504633, 33.222758 )    18.80174628
 
      4    -0.134E-01     0.1431799534       18.8017395342       0.11  <-- CONV
        O_D=      0.0317452 O_OD=      1.0399211 O_TOT=     18.8017395 <-- SPRD
 Delta: O_D= -0.8174308E-03 O_OD= -0.1257150E-01 O_TOT= -0.1338893E-01 <-- DLTA
 ------------------------------------------------------------------------------
 Cycle:      5
  WF centre and spread    1  ( -0.000195,  0.000109,  3.020258 )     1.53713658
  WF centre and spread    2  (  0.000039,  0.044484,  3.020248 )     1.82741648
  WF centre and spread    3  ( -0.000233, -0.044673,  3.020246 )     1.82559789
  WF centre and spread    4  ( -0.000002,  0.113307,  3.020251 )     1.69838653
  WF centre and spread    5  ( -0.000234, -0.112795,  3.020251 )     1.69846768
  WF centre and spread    6  (  1.591268,  0.917194,  1.353119 )     1.74413280
  WF centre and spread    7  (  1.591352,  0.905853,  1.500854 )     1.67954186
  WF centre and spread    8  (  1.591341,  0.929056,  1.500812 )     1.68038496
  WF centre and spread    9  (  1.591277,  0.917201,  4.687385 )     1.74413242
  WF centre and spread   10  (  1.591337,  0.905853,  4.539642 )     1.67953417
  WF centre and spread   11  (  1.591339,  0.929044,  4.539694 )     1.68034515
  Sum of centres and spreads (  9.547290,  5.504634, 33.222760 )    18.79507652
 
      5    -0.667E-02     0.1005768326       18.7950697742       0.13  <-- CONV
        O_D=      0.0313176 O_OD=      1.0336789 O_TOT=     18.7950698 <-- SPRD
 Delta: O_D= -0.4275876E-03 O_OD= -0.6242172E-02 O_TOT= -0.6669760E-02 <-- DLTA
 ------------------------------------------------------------------------------
 Cycle:      6
  WF centre and spread    1  ( -0.000195,  0.000107,  3.020257 )     1.53800344
  WF centre and spread    2  (  0.000043,  0.044834,  3.020250 )     1.83095123
  WF centre and spread    3  ( -0.000230, -0.045023,  3.020247 )     1.82911552
  WF centre and spread    4  ( -0.000001,  0.113822,  3.020251 )     1.69942921
  WF centre and spread    5  ( -0.000235, -0.113260,  3.020251 )     1.69955393
  WF centre and spread    6  (  1.591267,  0.917169,  1.353077 )     1.74156525
  WF centre and spread    7  (  1.591349,  0.905806,  1.500814 )     1.67754937
  WF centre and spread    8  (  1.591341,  0.929103,  1.500770 )     1.67841302
  WF centre and spread    9  (  1.591277,  0.917176,  4.687426 )     1.74156749
  WF centre and spread   10  (  1.591336,  0.905806,  4.539683 )     1.67753959
  WF centre and spread   11  (  1.591340,  0.929093,  4.539735 )     1.67838839
  Sum of centres and spreads (  9.547290,  5.504633, 33.222760 )    18.79207642
 
      6    -0.300E-02     0.0711610861       18.7920696791       0.15  <-- CONV
        O_D=      0.0311225 O_OD=      1.0308739 O_TOT=     18.7920697 <-- SPRD
 Delta: O_D= -0.1950810E-03 O_OD= -0.2805014E-02 O_TOT= -0.3000095E-02 <-- DLTA
 ------------------------------------------------------------------------------
 Cycle:      7
  WF centre and spread    1  ( -0.000195,  0.000105,  3.020257 )     1.53795405
  WF centre and spread    2  (  0.000043,  0.044862,  3.020250 )     1.83115660
  WF centre and spread    3  ( -0.000230, -0.045049,  3.020247 )     1.82932155
  WF centre and spread    4  ( -0.000001,  0.113836,  3.020251 )     1.69931113
  WF centre and spread    5  ( -0.000235, -0.113260,  3.020251 )     1.69945029
  WF centre and spread    6  (  1.591267,  0.917163,  1.353083 )     1.74142591
  WF centre and spread    7  (  1.591348,  0.905796,  1.500787 )     1.67736899
  WF centre and spread    8  (  1.591341,  0.929112,  1.500743 )     1.67823019
  WF centre and spread    9  (  1.591277,  0.917170,  4.687420 )     1.74142681
  WF centre and spread   10  (  1.591336,  0.905797,  4.539709 )     1.67735659
  WF centre and spread   11  (  1.591340,  0.929102,  4.539762 )     1.67820536
  Sum of centres and spreads (  9.547291,  5.504633, 33.222760 )    18.79120746
 
      7    -0.869E-03     0.0458066182       18.7912007141       0.17  <-- CONV
        O_D=      0.0310210 O_OD=      1.0301064 O_TOT=     18.7912007 <-- SPRD
 Delta: O_D= -0.1014664E-03 O_OD= -0.7674986E-03 O_TOT= -0.8689651E-03 <-- DLTA
 ------------------------------------------------------------------------------
 Cycle:      8
  WF centre and spread    1  ( -0.000195,  0.000102,  3.020256 )     1.53800653
  WF centre and spread    2  (  0.000043,  0.044931,  3.020250 )     1.83173578
  WF centre and spread    3  ( -0.000230, -0.045115,  3.020248 )     1.82990262
  WF centre and spread    4  ( -0.000002,  0.113872,  3.020252 )     1.69929990
  WF centre and spread    5  ( -0.000235, -0.113262,  3.020252 )     1.69947456
  WF centre and spread    6  (  1.591267,  0.917146,  1.353101 )     1.74121657
  WF centre and spread    7  (  1.591347,  0.905772,  1.500729 )     1.67700822
  WF centre and spread    8  (  1.591340,  0.929134,  1.500684 )     1.67786327
  WF centre and spread    9  (  1.591278,  0.917154,  4.687401 )     1.74121310
  WF centre and spread   10  (  1.591335,  0.905774,  4.539767 )     1.67699013
  WF centre and spread   11  (  1.591341,  0.929124,  4.539820 )     1.67783736
  Sum of centres and spreads (  9.547291,  5.504631, 33.222759 )    18.79054805
 
      8    -0.659E-03     0.0296683133       18.7905413030       0.19  <-- CONV
        O_D=      0.0309703 O_OD=      1.0294977 O_TOT=     18.7905413 <-- SPRD
 Delta: O_D= -0.5074896E-04 O_OD= -0.6086621E-03 O_TOT= -0.6594111E-03 <-- DLTA
 ------------------------------------------------------------------------------
 Cycle:      9
  WF centre and spread    1  ( -0.000195,  0.000097,  3.020255 )     1.53815702
  WF centre and spread    2  (  0.000044,  0.045025,  3.020251 )     1.83254755
  WF centre and spread    3  ( -0.000229, -0.045205,  3.020248 )     1.83071656
  WF centre and spread    4  ( -0.000002,  0.113928,  3.020252 )     1.69935640
  WF centre and spread    5  ( -0.000235, -0.113270,  3.020252 )     1.69957966
  WF centre and spread    6  (  1.591267,  0.917123,  1.353128 )     1.74094137
  WF centre and spread    7  (  1.591345,  0.905741,  1.500664 )     1.67654409
  WF centre and spread    8  (  1.591340,  0.929162,  1.500616 )     1.67738974
  WF centre and spread    9  (  1.591279,  0.917131,  4.687373 )     1.74093273
  WF centre and spread   10  (  1.591335,  0.905743,  4.539833 )     1.67652043
  WF centre and spread   11  (  1.591342,  0.929154,  4.539886 )     1.67736292
  Sum of centres and spreads (  9.547291,  5.504628, 33.222758 )    18.79004847
 
      9    -0.500E-03     0.0254757358       18.7900417268       0.21  <-- CONV
        O_D=      0.0309229 O_OD=      1.0290455 O_TOT=     18.7900417 <-- SPRD
 Delta: O_D= -0.4736684E-04 O_OD= -0.4522093E-03 O_TOT= -0.4995761E-03 <-- DLTA
 ------------------------------------------------------------------------------
 Cycle:     10
  WF centre and spread    1  ( -0.000195,  0.000092,  3.020255 )     1.53835074
  WF centre and spread    2  (  0.000045,  0.045106,  3.020251 )     1.83322429
  WF centre and spread    3  ( -0.000229, -0.045283,  3.020249 )     1.83139453
  WF centre and spread    4  ( -0.000002,  0.113985,  3.020252 )     1.69948720
  WF centre and spread    5  ( -0.000235, -0.113284,  3.020252 )     1.69975156
  WF centre and spread    6  (  1.591267,  0.917101,  1.353153 )     1.74070043
  WF centre and spread    7  (  1.591343,  0.905712,  1.500623 )     1.67613637
  WF centre and spread    8  (  1.591340,  0.929189,  1.500573 )     1.67697259
  WF centre and spread    9  (  1.591279,  0.917110,  4.687348 )     1.74068831
  WF centre and spread   10  (  1.591334,  0.905715,  4.539874 )     1.67611038
  WF centre and spread   11  (  1.591342,  0.929181,  4.539928 )     1.67694619
  Sum of centres and spreads (  9.547292,  5.504624, 33.222758 )    18.78976260
 
     10    -0.286E-03     0.0208498915       18.7897558549       0.22  <-- CONV
        O_D=      0.0309122 O_OD=      1.0287703 O_TOT=     18.7897559 <-- SPRD
 Delta: O_D= -0.1067165E-04 O_OD= -0.2752002E-03 O_TOT= -0.2858719E-03 <-- DLTA
 ------------------------------------------------------------------------------
 Cycle:     11
  WF centre and spread    1  ( -0.000194,  0.000087,  3.020254 )     1.53854556
  WF centre and spread    2  (  0.000046,  0.045174,  3.020251 )     1.83377428
  WF centre and spread    3  ( -0.000228, -0.045348,  3.020249 )     1.83194488
  WF centre and spread    4  ( -0.000002,  0.114046,  3.020252 )     1.69966567
  WF centre and spread    5  ( -0.000235, -0.113302,  3.020252 )     1.69996290
  WF centre and spread    6  (  1.591267,  0.917081,  1.353172 )     1.74050499
  WF centre and spread    7  (  1.591342,  0.905684,  1.500603 )     1.67577470
  WF centre and spread    8  (  1.591340,  0.929215,  1.500551 )     1.67660108
  WF centre and spread    9  (  1.591280,  0.917089,  4.687329 )     1.74049101
  WF centre and spread   10  (  1.591333,  0.905687,  4.539895 )     1.67574933
  WF centre and spread   11  (  1.591343,  0.929208,  4.539950 )     1.67657656
  Sum of centres and spreads (  9.547292,  5.504622, 33.222757 )    18.78959095
 
     11    -0.172E-03     0.0157050050       18.7895842113       0.24  <-- CONV
        O_D=      0.0309061 O_OD=      1.0286049 O_TOT=     18.7895842 <-- SPRD
 Delta: O_D= -0.6175937E-05 O_OD= -0.1654677E-03 O_TOT= -0.1716437E-03 <-- DLTA
 ------------------------------------------------------------------------------
 Cycle:     12
  WF centre and spread    1  ( -0.000194,  0.000083,  3.020253 )     1.53868858
  WF centre and spread    2  (  0.000047,  0.045224,  3.020251 )     1.83415603
  WF centre and spread    3  ( -0.000228, -0.045396,  3.020249 )     1.83232607
  WF centre and spread    4  ( -0.000002,  0.114100,  3.020252 )     1.69984048
  WF centre and spread    5  ( -0.000235, -0.113320,  3.020252 )     1.70015803
  WF centre and spread    6  (  1.591268,  0.917063,  1.353184 )     1.74037187
  WF centre and spread    7  (  1.591341,  0.905659,  1.500602 )     1.67550236
  WF centre and spread    8  (  1.591341,  0.929239,  1.500548 )     1.67631995
  WF centre and spread    9  (  1.591280,  0.917072,  4.687317 )     1.74035779
  WF centre and spread   10  (  1.591333,  0.905662,  4.539897 )     1.67547969
  WF centre and spread   11  (  1.591343,  0.929232,  4.539952 )     1.67629820
  Sum of centres and spreads (  9.547292,  5.504620, 33.222757 )    18.78949904
 
     12    -0.919E-04     0.0117315947       18.7894922970       0.26  <-- CONV
        O_D=      0.0308998 O_OD=      1.0285192 O_TOT=     18.7894923 <-- SPRD
 Delta: O_D= -0.6230946E-05 O_OD= -0.8568328E-04 O_TOT= -0.9191423E-04 <-- DLTA
 ------------------------------------------------------------------------------
 Cycle:     13
  WF centre and spread    1  ( -0.000194,  0.000082,  3.020253 )     1.53870574
  WF centre and spread    2  (  0.000047,  0.045229,  3.020251 )     1.83418114
  WF centre and spread    3  ( -0.000228, -0.045400,  3.020249 )     1.83235054
  WF centre and spread    4  ( -0.000002,  0.114111,  3.020252 )     1.69986521
  WF centre and spread    5  ( -0.000235, -0.113324,  3.020251 )     1.70018261
  WF centre and spread    6  (  1.591268,  0.917060,  1.353185 )     1.74035516
  WF centre and spread    7  (  1.591341,  0.905655,  1.500607 )     1.67547481
  WF centre and spread    8  (  1.591341,  0.929244,  1.500553 )     1.67629113
  WF centre and spread    9  (  1.591280,  0.917069,  4.687317 )     1.74034187
  WF centre and spread   10  (  1.591333,  0.905658,  4.539891 )     1.67545336
  WF centre and spread   11  (  1.591343,  0.929237,  4.539947 )     1.67627030
  Sum of centres and spreads (  9.547292,  5.504620, 33.222757 )    18.78947186
 
     13    -0.272E-04     0.0089970143       18.7894651166       0.28  <-- CONV
        O_D=      0.0308958 O_OD=      1.0284961 O_TOT=     18.7894651 <-- SPRD
 Delta: O_D= -0.4075216E-05 O_OD= -0.2310521E-04 O_TOT= -0.2718043E-04 <-- DLTA
 ------------------------------------------------------------------------------
 Cycle:     14
  WF centre and spread    1  ( -0.000194,  0.000078,  3.020253 )     1.53877832
  WF centre and spread    2  (  0.000047,  0.045244,  3.020251 )     1.83427840
  WF centre and spread    3  ( -0.000228, -0.045414,  3.020249 )     1.83244556
  WF centre and spread    4  ( -0.000001,  0.114149,  3.020252 )     1.69995897
  WF centre and spread    5  ( -0.000236, -0.113341,  3.020251 )     1.70027594
  WF centre and spread    6  (  1.591268,  0.917051,  1.353186 )     1.74030403
  WF centre and spread    7  (  1.591341,  0.905640,  1.500624 )     1.67538134
  WF centre and spread    8  (  1.591341,  0.929260,  1.500569 )     1.67619347
  WF centre and spread    9  (  1.591280,  0.917059,  4.687316 )     1.74029342
  WF centre and spread   10  (  1.591332,  0.905642,  4.539874 )     1.67536403
  WF centre and spread   11  (  1.591343,  0.929253,  4.539931 )     1.67617581
  Sum of centres and spreads (  9.547292,  5.504620, 33.222758 )    18.78944930
 
     14    -0.226E-04     0.0049742033       18.7894425552       0.30  <-- CONV
        O_D=      0.0308924 O_OD=      1.0284768 O_TOT=     18.7894426 <-- SPRD
 Delta: O_D= -0.3324793E-05 O_OD= -0.1923663E-04 O_TOT= -0.2256142E-04 <-- DLTA
 ------------------------------------------------------------------------------
 Cycle:     15
  WF centre and spread    1  ( -0.000194,  0.000072,  3.020252 )     1.53891108
  WF centre and spread    2  (  0.000047,  0.045269,  3.020251 )     1.83446027
  WF centre and spread    3  ( -0.000227, -0.045436,  3.020250 )     1.83262374
  WF centre and spread    4  ( -0.000001,  0.114211,  3.020252 )     1.70010149
  WF centre and spread    5  ( -0.000236, -0.113369,  3.020251 )     1.70041796
  WF centre and spread    6  (  1.591269,  0.917035,  1.353191 )     1.74022015
  WF centre and spread    7  (  1.591341,  0.905616,  1.500650 )     1.67522259
  WF centre and spread    8  (  1.591341,  0.929285,  1.500594 )     1.67602821
  WF centre and spread    9  (  1.591279,  0.917042,  4.687312 )     1.74021374
  WF centre and spread   10  (  1.591332,  0.905617,  4.539849 )     1.67521164
  WF centre and spread   11  (  1.591342,  0.929278,  4.539907 )     1.67601557
  Sum of centres and spreads (  9.547292,  5.504620, 33.222758 )    18.78942643
 
     15    -0.229E-04     0.0052288155       18.7894196901       0.32  <-- CONV
        O_D=      0.0308889 O_OD=      1.0284575 O_TOT=     18.7894197 <-- SPRD
 Delta: O_D= -0.3549877E-05 O_OD= -0.1931526E-04 O_TOT= -0.2286514E-04 <-- DLTA
 ------------------------------------------------------------------------------
 Cycle:     16
  WF centre and spread    1  ( -0.000194,  0.000065,  3.020252 )     1.53905527
  WF centre and spread    2  (  0.000048,  0.045297,  3.020251 )     1.83468059
  WF centre and spread    3  ( -0.000227, -0.045461,  3.020250 )     1.83284040
  WF centre and spread    4  ( -0.000001,  0.114273,  3.020252 )     1.70022890
  WF centre and spread    5  ( -0.000237, -0.113396,  3.020251 )     1.70054480
  WF centre and spread    6  (  1.591269,  0.917018,  1.353196 )     1.74014063
  WF centre and spread    7  (  1.591341,  0.905592,  1.500672 )     1.67504876
  WF centre and spread    8  (  1.591342,  0.929311,  1.500614 )     1.67584802
  WF centre and spread    9  (  1.591279,  0.917025,  4.687307 )     1.74013798
  WF centre and spread   10  (  1.591331,  0.905592,  4.539828 )     1.67504350
  WF centre and spread   11  (  1.591342,  0.929304,  4.539886 )     1.67584014
  Sum of centres and spreads (  9.547292,  5.504620, 33.222759 )    18.78940898
 
     16    -0.175E-04     0.0049928252       18.7894022373       0.33  <-- CONV
        O_D=      0.0308868 O_OD=      1.0284422 O_TOT=     18.7894022 <-- SPRD
 Delta: O_D= -0.2131011E-05 O_OD= -0.1532176E-04 O_TOT= -0.1745277E-04 <-- DLTA
 ------------------------------------------------------------------------------
 Cycle:     17
  WF centre and spread    1  ( -0.000194,  0.000060,  3.020252 )     1.53916618
  WF centre and spread    2  (  0.000048,  0.045319,  3.020251 )     1.83488372
  WF centre and spread    3  ( -0.000227, -0.045480,  3.020250 )     1.83304110
  WF centre and spread    4  ( -0.000000,  0.114319,  3.020252 )     1.70030535
  WF centre and spread    5  ( -0.000238, -0.113414,  3.020251 )     1.70062033
  WF centre and spread    6  (  1.591269,  0.917004,  1.353200 )     1.74009106
  WF centre and spread    7  (  1.591341,  0.905575,  1.500684 )     1.67490460
  WF centre and spread    8  (  1.591342,  0.929329,  1.500625 )     1.67569922
  WF centre and spread    9  (  1.591279,  0.917011,  4.687303 )     1.74009043
  WF centre and spread   10  (  1.591331,  0.905575,  4.539816 )     1.67490256
  WF centre and spread   11  (  1.591342,  0.929323,  4.539876 )     1.67569439
  Sum of centres and spreads (  9.547292,  5.504620, 33.222759 )    18.78939894
 
     17    -0.100E-04     0.0039403381       18.7893921993       0.35  <-- CONV
        O_D=      0.0308849 O_OD=      1.0284340 O_TOT=     18.7893922 <-- SPRD
 Delta: O_D= -0.1848303E-05 O_OD= -0.8189669E-05 O_TOT= -0.1003797E-04 <-- DLTA
 ------------------------------------------------------------------------------
 Cycle:     18
  WF centre and spread    1  ( -0.000194,  0.000053,  3.020251 )     1.53926568
  WF centre and spread    2  (  0.000048,  0.045340,  3.020252 )     1.83509656
  WF centre and spread    3  ( -0.000227, -0.045499,  3.020250 )     1.83325217
  WF centre and spread    4  (  0.000000,  0.114359,  3.020251 )     1.70035980
  WF centre and spread    5  ( -0.000239, -0.113429,  3.020250 )     1.70067301
  WF centre and spread    6  (  1.591270,  0.916992,  1.353203 )     1.74005399
  WF centre and spread    7  (  1.591340,  0.905560,  1.500689 )     1.67476464
  WF centre and spread    8  (  1.591342,  0.929346,  1.500629 )     1.67555509
  WF centre and spread    9  (  1.591279,  0.916998,  4.687300 )     1.74005427
  WF centre and spread   10  (  1.591330,  0.905560,  4.539811 )     1.67476434
  WF centre and spread   11  (  1.591342,  0.929340,  4.539871 )     1.67555241
  Sum of centres and spreads (  9.547292,  5.504620, 33.222759 )    18.78939197
 
     18    -0.697E-05     0.0031350508       18.7893852246       0.37  <-- CONV
        O_D=      0.0308838 O_OD=      1.0284282 O_TOT=     18.7893852 <-- SPRD
 Delta: O_D= -0.1128372E-05 O_OD= -0.5846368E-05 O_TOT= -0.6974741E-05 <-- DLTA
 ------------------------------------------------------------------------------
 Cycle:     19
  WF centre and spread    1  ( -0.000194,  0.000052,  3.020251 )     1.53927528
  WF centre and spread    2  (  0.000048,  0.045342,  3.020252 )     1.83512563
  WF centre and spread    3  ( -0.000227, -0.045502,  3.020250 )     1.83328128
  WF centre and spread    4  (  0.000000,  0.114363,  3.020251 )     1.70036076
  WF centre and spread    5  ( -0.000239, -0.113430,  3.020250 )     1.70067314
  WF centre and spread    6  (  1.591269,  0.916990,  1.353203 )     1.74005051
  WF centre and spread    7  (  1.591340,  0.905559,  1.500688 )     1.67474865
  WF centre and spread    8  (  1.591342,  0.929348,  1.500628 )     1.67553860
  WF centre and spread    9  (  1.591279,  0.916997,  4.687300 )     1.74005046
  WF centre and spread   10  (  1.591330,  0.905559,  4.539813 )     1.67474799
  WF centre and spread   11  (  1.591342,  0.929342,  4.539873 )     1.67553585
  Sum of centres and spreads (  9.547292,  5.504620, 33.222759 )    18.78938815
 
     19    -0.382E-05     0.0029874434       18.7893814037       0.39  <-- CONV
        O_D=      0.0308836 O_OD=      1.0284245 O_TOT=     18.7893814 <-- SPRD
 Delta: O_D= -0.1660542E-06 O_OD= -0.3654818E-05 O_TOT= -0.3820872E-05 <-- DLTA
 ------------------------------------------------------------------------------
 Cycle:     20
  WF centre and spread    1  ( -0.000194,  0.000049,  3.020251 )     1.53929980
  WF centre and spread    2  (  0.000049,  0.045349,  3.020252 )     1.83519416
  WF centre and spread    3  ( -0.000227, -0.045507,  3.020250 )     1.83334990
  WF centre and spread    4  (  0.000001,  0.114373,  3.020252 )     1.70036326
  WF centre and spread    5  ( -0.000239, -0.113433,  3.020250 )     1.70067368
  WF centre and spread    6  (  1.591269,  0.916986,  1.353203 )     1.74004403
  WF centre and spread    7  (  1.591340,  0.905556,  1.500684 )     1.67471101
  WF centre and spread    8  (  1.591342,  0.929353,  1.500624 )     1.67549971
  WF centre and spread    9  (  1.591279,  0.916993,  4.687300 )     1.74004323
  WF centre and spread   10  (  1.591330,  0.905556,  4.539817 )     1.67470954
  WF centre and spread   11  (  1.591342,  0.929347,  4.539877 )     1.67549684
  Sum of centres and spreads (  9.547292,  5.504620, 33.222759 )    18.78938515
 
     20    -0.299E-05     0.0019928321       18.7893784087       0.41  <-- CONV
        O_D=      0.0308839 O_OD=      1.0284213 O_TOT=     18.7893784 <-- SPRD
 Delta: O_D=  0.2650551E-06 O_OD= -0.3260029E-05 O_TOT= -0.2994974E-05 <-- DLTA
 ------------------------------------------------------------------------------
 Cycle:     21
  WF centre and spread    1  ( -0.000194,  0.000042,  3.020251 )     1.53934452
  WF centre and spread    2  (  0.000049,  0.045360,  3.020252 )     1.83530540
  WF centre and spread    3  ( -0.000227, -0.045517,  3.020250 )     1.83346120
  WF centre and spread    4  (  0.000001,  0.114391,  3.020252 )     1.70036649
  WF centre and spread    5  ( -0.000239, -0.113437,  3.020250 )     1.70067366
  WF centre and spread    6  (  1.591269,  0.916978,  1.353204 )     1.74003555
  WF centre and spread    7  (  1.591340,  0.905550,  1.500678 )     1.67464849
  WF centre and spread    8  (  1.591342,  0.929362,  1.500618 )     1.67543496
  WF centre and spread    9  (  1.591279,  0.916985,  4.687299 )     1.74003367
  WF centre and spread   10  (  1.591331,  0.905551,  4.539822 )     1.67464592
  WF centre and spread   11  (  1.591342,  0.929356,  4.539883 )     1.67543202
  Sum of centres and spreads (  9.547292,  5.504620, 33.222759 )    18.78938188
 
     21    -0.328E-05     0.0019666694       18.7893751334       0.43  <-- CONV
        O_D=      0.0308844 O_OD=      1.0284175 O_TOT=     18.7893751 <-- SPRD
 Delta: O_D=  0.5113577E-06 O_OD= -0.3786690E-05 O_TOT= -0.3275332E-05 <-- DLTA
 ------------------------------------------------------------------------------
 Cycle:     22
  WF centre and spread    1  ( -0.000194,  0.000035,  3.020251 )     1.53939306
  WF centre and spread    2  (  0.000049,  0.045371,  3.020252 )     1.83540391
  WF centre and spread    3  ( -0.000227, -0.045527,  3.020250 )     1.83355965
  WF centre and spread    4  (  0.000002,  0.114411,  3.020252 )     1.70037100
  WF centre and spread    5  ( -0.000240, -0.113443,  3.020250 )     1.70067499
  WF centre and spread    6  (  1.591269,  0.916969,  1.353204 )     1.74002921
  WF centre and spread    7  (  1.591340,  0.905544,  1.500674 )     1.67458969
  WF centre and spread    8  (  1.591342,  0.929373,  1.500614 )     1.67537376
  WF centre and spread    9  (  1.591279,  0.916976,  4.687298 )     1.74002659
  WF centre and spread   10  (  1.591331,  0.905545,  4.539826 )     1.67458647
  WF centre and spread   11  (  1.591343,  0.929366,  4.539887 )     1.67537099
  Sum of centres and spreads (  9.547292,  5.504620, 33.222759 )    18.78937931
 
     22    -0.257E-05     0.0018859175       18.7893725634       0.45  <-- CONV
        O_D=      0.0308853 O_OD=      1.0284140 O_TOT=     18.7893726 <-- SPRD
 Delta: O_D=  0.9245464E-06 O_OD= -0.3494536E-05 O_TOT= -0.2569990E-05 <-- DLTA
 ------------------------------------------------------------------------------
 Cycle:     23
  WF centre and spread    1  ( -0.000194,  0.000027,  3.020251 )     1.53944324
  WF centre and spread    2  (  0.000049,  0.045380,  3.020252 )     1.83548053
  WF centre and spread    3  ( -0.000227, -0.045535,  3.020250 )     1.83363610
  WF centre and spread    4  (  0.000002,  0.114433,  3.020252 )     1.70038028
  WF centre and spread    5  ( -0.000241, -0.113448,  3.020250 )     1.70068115
  WF centre and spread    6  (  1.591269,  0.916959,  1.353205 )     1.74002441
  WF centre and spread    7  (  1.591340,  0.905537,  1.500673 )     1.67453814
  WF centre and spread    8  (  1.591342,  0.929385,  1.500613 )     1.67531956
  WF centre and spread    9  (  1.591279,  0.916966,  4.687298 )     1.74002155
  WF centre and spread   10  (  1.591331,  0.905537,  4.539828 )     1.67453494
  WF centre and spread   11  (  1.591343,  0.929379,  4.539888 )     1.67531729
  Sum of centres and spreads (  9.547292,  5.504620, 33.222759 )    18.78937719
 
     23    -0.212E-05     0.0016246534       18.7893704446       0.48  <-- CONV
        O_D=      0.0308865 O_OD=      1.0284107 O_TOT=     18.7893704 <-- SPRD
 Delta: O_D=  0.1154545E-05 O_OD= -0.3273385E-05 O_TOT= -0.2118841E-05 <-- DLTA
 ------------------------------------------------------------------------------
 Cycle:     24
  WF centre and spread    1  ( -0.000194,  0.000014,  3.020251 )     1.53950702
  WF centre and spread    2  (  0.000050,  0.045391,  3.020252 )     1.83555296
  WF centre and spread    3  ( -0.000228, -0.045544,  3.020250 )     1.83370822
  WF centre and spread    4  (  0.000003,  0.114466,  3.020252 )     1.70040113
  WF centre and spread    5  ( -0.000242, -0.113456,  3.020250 )     1.70069794
  WF centre and spread    6  (  1.591269,  0.916944,  1.353206 )     1.74001931
  WF centre and spread    7  (  1.591340,  0.905526,  1.500675 )     1.67447996
  WF centre and spread    8  (  1.591342,  0.929404,  1.500614 )     1.67525746
  WF centre and spread    9  (  1.591279,  0.916951,  4.687297 )     1.74001677
  WF centre and spread   10  (  1.591330,  0.905527,  4.539826 )     1.67447765
  WF centre and spread   11  (  1.591343,  0.929398,  4.539886 )     1.67525627
  Sum of centres and spreads (  9.547292,  5.504621, 33.222759 )    18.78937467
 
     24    -0.252E-05     0.0015326737       18.7893679235       0.50  <-- CONV
        O_D=      0.0308875 O_OD=      1.0284071 O_TOT=     18.7893679 <-- SPRD
 Delta: O_D=  0.1052080E-05 O_OD= -0.3573116E-05 O_TOT= -0.2521036E-05 <-- DLTA
 ------------------------------------------------------------------------------
 Cycle:     25
  WF centre and spread    1  ( -0.000194,  0.000013,  3.020251 )     1.53950610
  WF centre and spread    2  (  0.000050,  0.045391,  3.020252 )     1.83554563
  WF centre and spread    3  ( -0.000228, -0.045544,  3.020250 )     1.83370087
  WF centre and spread    4  (  0.000003,  0.114467,  3.020252 )     1.70040310
  WF centre and spread    5  ( -0.000242, -0.113456,  3.020250 )     1.70070004
  WF centre and spread    6  (  1.591269,  0.916943,  1.353206 )     1.74001880
  WF centre and spread    7  (  1.591340,  0.905526,  1.500676 )     1.67448254
  WF centre and spread    8  (  1.591342,  0.929405,  1.500615 )     1.67525990
  WF centre and spread    9  (  1.591278,  0.916950,  4.687297 )     1.74001645
  WF centre and spread   10  (  1.591330,  0.905526,  4.539825 )     1.67448049
  WF centre and spread   11  (  1.591343,  0.929399,  4.539885 )     1.67525884
  Sum of centres and spreads (  9.547292,  5.504621, 33.222759 )    18.78937277
 
     25    -0.189E-05     0.0023582423       18.7893660292       0.51  <-- CONV
        O_D=      0.0308871 O_OD=      1.0284057 O_TOT=     18.7893660 <-- SPRD
 Delta: O_D= -0.4650847E-06 O_OD= -0.1429210E-05 O_TOT= -0.1894295E-05 <-- DLTA
 ------------------------------------------------------------------------------
 Cycle:     26
  WF centre and spread    1  ( -0.000194,  0.000009,  3.020251 )     1.53950537
  WF centre and spread    2  (  0.000050,  0.045389,  3.020252 )     1.83552397
  WF centre and spread    3  ( -0.000228, -0.045542,  3.020250 )     1.83367913
  WF centre and spread    4  (  0.000004,  0.114471,  3.020252 )     1.70040932
  WF centre and spread    5  ( -0.000242, -0.113456,  3.020250 )     1.70070680
  WF centre and spread    6  (  1.591269,  0.916940,  1.353206 )     1.74001777
  WF centre and spread    7  (  1.591340,  0.905525,  1.500679 )     1.67449023
  WF centre and spread    8  (  1.591342,  0.929409,  1.500619 )     1.67526718
  WF centre and spread    9  (  1.591278,  0.916947,  4.687297 )     1.74001601
  WF centre and spread   10  (  1.591330,  0.905526,  4.539822 )     1.67448898
  WF centre and spread   11  (  1.591342,  0.929403,  4.539882 )     1.67526656
  Sum of centres and spreads (  9.547292,  5.504621, 33.222759 )    18.78937132
 
     26    -0.145E-05     0.0012814009       18.7893645780       0.53  <-- CONV
        O_D=      0.0308864 O_OD=      1.0284049 O_TOT=     18.7893646 <-- SPRD
 Delta: O_D= -0.6819682E-06 O_OD= -0.7692983E-06 O_TOT= -0.1451266E-05 <-- DLTA
 ------------------------------------------------------------------------------
 Cycle:     27
  WF centre and spread    1  ( -0.000194,  0.000001,  3.020251 )     1.53950766
  WF centre and spread    2  (  0.000050,  0.045387,  3.020252 )     1.83548816
  WF centre and spread    3  ( -0.000228, -0.045539,  3.020250 )     1.83364310
  WF centre and spread    4  (  0.000004,  0.114480,  3.020251 )     1.70041807
  WF centre and spread    5  ( -0.000243, -0.113456,  3.020250 )     1.70071702
  WF centre and spread    6  (  1.591269,  0.916934,  1.353206 )     1.74001725
  WF centre and spread    7  (  1.591340,  0.905524,  1.500685 )     1.67450219
  WF centre and spread    8  (  1.591342,  0.929416,  1.500624 )     1.67527846
  WF centre and spread    9  (  1.591278,  0.916940,  4.687296 )     1.74001658
  WF centre and spread   10  (  1.591330,  0.905524,  4.539816 )     1.67450239
  WF centre and spread   11  (  1.591342,  0.929410,  4.539877 )     1.67527866
  Sum of centres and spreads (  9.547292,  5.504621, 33.222760 )    18.78936953
 
     27    -0.179E-05     0.0013537092       18.7893627856       0.55  <-- CONV
        O_D=      0.0308856 O_OD=      1.0284039 O_TOT=     18.7893628 <-- SPRD
 Delta: O_D= -0.7450008E-06 O_OD= -0.1047348E-05 O_TOT= -0.1792348E-05 <-- DLTA
 ------------------------------------------------------------------------------
 Cycle:     28
  WF centre and spread    1  ( -0.000194, -0.000011,  3.020251 )     1.53951329
  WF centre and spread    2  (  0.000050,  0.045383,  3.020252 )     1.83544781
  WF centre and spread    3  ( -0.000228, -0.045535,  3.020250 )     1.83360239
  WF centre and spread    4  (  0.000005,  0.114494,  3.020251 )     1.70042501
  WF centre and spread    5  ( -0.000244, -0.113455,  3.020250 )     1.70072685
  WF centre and spread    6  (  1.591269,  0.916923,  1.353208 )     1.74002071
  WF centre and spread    7  (  1.591340,  0.905523,  1.500692 )     1.67451391
  WF centre and spread    8  (  1.591343,  0.929427,  1.500631 )     1.67528921
  WF centre and spread    9  (  1.591278,  0.916929,  4.687295 )     1.74002147
  WF centre and spread   10  (  1.591331,  0.905523,  4.539809 )     1.67451603
  WF centre and spread   11  (  1.591342,  0.929421,  4.539870 )     1.67529054
  Sum of centres and spreads (  9.547292,  5.504621, 33.222760 )    18.78936722
 
     28    -0.231E-05     0.0015808503       18.7893604736       0.57  <-- CONV
        O_D=      0.0308848 O_OD=      1.0284024 O_TOT=     18.7893605 <-- SPRD
 Delta: O_D= -0.8564824E-06 O_OD= -0.1455552E-05 O_TOT= -0.2312034E-05 <-- DLTA
 ------------------------------------------------------------------------------
 Cycle:     29
  WF centre and spread    1  ( -0.000194, -0.000027,  3.020251 )     1.53951898
  WF centre and spread    2  (  0.000050,  0.045380,  3.020252 )     1.83542542
  WF centre and spread    3  ( -0.000228, -0.045532,  3.020250 )     1.83357961
  WF centre and spread    4  (  0.000006,  0.114512,  3.020251 )     1.70042569
  WF centre and spread    5  ( -0.000245, -0.113454,  3.020250 )     1.70073144
  WF centre and spread    6  (  1.591269,  0.916909,  1.353209 )     1.74002952
  WF centre and spread    7  (  1.591341,  0.905522,  1.500697 )     1.67451710
  WF centre and spread    8  (  1.591343,  0.929441,  1.500636 )     1.67529131
  WF centre and spread    9  (  1.591278,  0.916915,  4.687294 )     1.74003136
  WF centre and spread   10  (  1.591331,  0.905522,  4.539804 )     1.67452074
  WF centre and spread   11  (  1.591342,  0.929434,  4.539865 )     1.67529358
  Sum of centres and spreads (  9.547292,  5.504622, 33.222760 )    18.78936475
 
     29    -0.247E-05     0.0017105133       18.7893580084       0.59  <-- CONV
        O_D=      0.0308837 O_OD=      1.0284010 O_TOT=     18.7893580 <-- SPRD
 Delta: O_D= -0.1059294E-05 O_OD= -0.1405851E-05 O_TOT= -0.2465145E-05 <-- DLTA
 ------------------------------------------------------------------------------
 Cycle:     30
  WF centre and spread    1  ( -0.000194, -0.000052,  3.020251 )     1.53952451
  WF centre and spread    2  (  0.000050,  0.045379,  3.020252 )     1.83542808
  WF centre and spread    3  ( -0.000228, -0.045530,  3.020250 )     1.83358177
  WF centre and spread    4  (  0.000008,  0.114537,  3.020251 )     1.70042119
  WF centre and spread    5  ( -0.000246, -0.113452,  3.020250 )     1.70073273
  WF centre and spread    6  (  1.591269,  0.916888,  1.353211 )     1.74004328
  WF centre and spread    7  (  1.591341,  0.905522,  1.500700 )     1.67450785
  WF centre and spread    8  (  1.591343,  0.929460,  1.500639 )     1.67528048
  WF centre and spread    9  (  1.591277,  0.916894,  4.687292 )     1.74004567
  WF centre and spread   10  (  1.591331,  0.905521,  4.539801 )     1.67451246
  WF centre and spread   11  (  1.591342,  0.929454,  4.539862 )     1.67528342
  Sum of centres and spreads (  9.547292,  5.504622, 33.222760 )    18.78936145
 
     30    -0.331E-05     0.0018348295       18.7893547027       0.61  <-- CONV
        O_D=      0.0308824 O_OD=      1.0283991 O_TOT=     18.7893547 <-- SPRD
 Delta: O_D= -0.1354061E-05 O_OD= -0.1951693E-05 O_TOT= -0.3305754E-05 <-- DLTA
 ------------------------------------------------------------------------------
 Cycle:     31
  WF centre and spread    1  ( -0.000194, -0.000053,  3.020251 )     1.53952339
  WF centre and spread    2  (  0.000050,  0.045380,  3.020252 )     1.83544122
  WF centre and spread    3  ( -0.000228, -0.045531,  3.020250 )     1.83359491
  WF centre and spread    4  (  0.000008,  0.114539,  3.020251 )     1.70042006
  WF centre and spread    5  ( -0.000247, -0.113452,  3.020250 )     1.70073151
  WF centre and spread    6  (  1.591269,  0.916887,  1.353211 )     1.74004055
  WF centre and spread    7  (  1.591341,  0.905522,  1.500698 )     1.67450316
  WF centre and spread    8  (  1.591343,  0.929461,  1.500637 )     1.67527574
  WF centre and spread    9  (  1.591277,  0.916893,  4.687292 )     1.74004247
  WF centre and spread   10  (  1.591331,  0.905522,  4.539803 )     1.67450714
  WF centre and spread   11  (  1.591342,  0.929455,  4.539864 )     1.67527834
  Sum of centres and spreads (  9.547292,  5.504622, 33.222760 )    18.78935848
 
     31    -0.296E-05     0.0026106768       18.7893517409       0.62  <-- CONV
        O_D=      0.0308824 O_OD=      1.0283961 O_TOT=     18.7893517 <-- SPRD
 Delta: O_D=  0.4454990E-07 O_OD= -0.3006306E-05 O_TOT= -0.2961756E-05 <-- DLTA
 ------------------------------------------------------------------------------
 Cycle:     32
  WF centre and spread    1  ( -0.000194, -0.000057,  3.020251 )     1.53952129
  WF centre and spread    2  (  0.000050,  0.045383,  3.020252 )     1.83547063
  WF centre and spread    3  ( -0.000228, -0.045534,  3.020250 )     1.83362428
  WF centre and spread    4  (  0.000008,  0.114542,  3.020251 )     1.70041615
  WF centre and spread    5  ( -0.000247, -0.113452,  3.020250 )     1.70072754
  WF centre and spread    6  (  1.591268,  0.916884,  1.353210 )     1.74003671
  WF centre and spread    7  (  1.591341,  0.905523,  1.500693 )     1.67449314
  WF centre and spread    8  (  1.591343,  0.929463,  1.500632 )     1.67526565
  WF centre and spread    9  (  1.591277,  0.916891,  4.687293 )     1.74003757
  WF centre and spread   10  (  1.591331,  0.905522,  4.539808 )     1.67449573
  WF centre and spread   11  (  1.591342,  0.929457,  4.539869 )     1.67526748
  Sum of centres and spreads (  9.547292,  5.504622, 33.222760 )    18.78935617
 
     32    -0.231E-05     0.0017588346       18.7893494285       0.64  <-- CONV
        O_D=      0.0308830 O_OD=      1.0283932 O_TOT=     18.7893494 <-- SPRD
 Delta: O_D=  0.5623171E-06 O_OD= -0.2874702E-05 O_TOT= -0.2312385E-05 <-- DLTA
 ------------------------------------------------------------------------------
 Cycle:     33
  WF centre and spread    1  ( -0.000194, -0.000063,  3.020251 )     1.53951883
  WF centre and spread    2  (  0.000051,  0.045386,  3.020252 )     1.83551217
  WF centre and spread    3  ( -0.000228, -0.045538,  3.020250 )     1.83366571
  WF centre and spread    4  (  0.000008,  0.114548,  3.020251 )     1.70040654
  WF centre and spread    5  ( -0.000247, -0.113452,  3.020250 )     1.70071821
  WF centre and spread    6  (  1.591268,  0.916879,  1.353209 )     1.74003425
  WF centre and spread    7  (  1.591341,  0.905524,  1.500686 )     1.67447954
  WF centre and spread    8  (  1.591343,  0.929468,  1.500625 )     1.67525207
  WF centre and spread    9  (  1.591277,  0.916886,  4.687294 )     1.74003359
  WF centre and spread   10  (  1.591331,  0.905524,  4.539815 )     1.67448014
  WF centre and spread   11  (  1.591342,  0.929461,  4.539876 )     1.67525277
  Sum of centres and spreads (  9.547292,  5.504622, 33.222760 )    18.78935381
 
     33    -0.236E-05     0.0016951839       18.7893470646       0.66  <-- CONV
        O_D=      0.0308841 O_OD=      1.0283897 O_TOT=     18.7893471 <-- SPRD
 Delta: O_D=  0.1088906E-05 O_OD= -0.3452804E-05 O_TOT= -0.2363898E-05 <-- DLTA
 ------------------------------------------------------------------------------
 Cycle:     34
  WF centre and spread    1  ( -0.000194, -0.000070,  3.020251 )     1.53951813
  WF centre and spread    2  (  0.000051,  0.045389,  3.020252 )     1.83554300
  WF centre and spread    3  ( -0.000229, -0.045541,  3.020250 )     1.83369635
  WF centre and spread    4  (  0.000009,  0.114555,  3.020252 )     1.70039562
  WF centre and spread    5  ( -0.000248, -0.113453,  3.020250 )     1.70070800
  WF centre and spread    6  (  1.591268,  0.916873,  1.353208 )     1.74003404
  WF centre and spread    7  (  1.591341,  0.905524,  1.500680 )     1.67447014
  WF centre and spread    8  (  1.591342,  0.929473,  1.500620 )     1.67524277
  WF centre and spread    9  (  1.591277,  0.916880,  4.687294 )     1.74003220
  WF centre and spread   10  (  1.591331,  0.905524,  4.539821 )     1.67446913
  WF centre and spread   11  (  1.591343,  0.929467,  4.539881 )     1.67524255
  Sum of centres and spreads (  9.547292,  5.504622, 33.222759 )    18.78935193
 
     34    -0.188E-05     0.0016060116       18.7893451819       0.68  <-- CONV
        O_D=      0.0308856 O_OD=      1.0283863 O_TOT=     18.7893452 <-- SPRD
 Delta: O_D=  0.1514338E-05 O_OD= -0.3397121E-05 O_TOT= -0.1882782E-05 <-- DLTA
 ------------------------------------------------------------------------------
 Cycle:     35
  WF centre and spread    1  ( -0.000194, -0.000078,  3.020251 )     1.53951856
  WF centre and spread    2  (  0.000051,  0.045391,  3.020252 )     1.83555652
  WF centre and spread    3  ( -0.000229, -0.045543,  3.020250 )     1.83370959
  WF centre and spread    4  (  0.000009,  0.114564,  3.020252 )     1.70038731
  WF centre and spread    5  ( -0.000248, -0.113454,  3.020250 )     1.70070084
  WF centre and spread    6  (  1.591268,  0.916866,  1.353208 )     1.74003396
  WF centre and spread    7  (  1.591341,  0.905524,  1.500676 )     1.67446736
  WF centre and spread    8  (  1.591342,  0.929480,  1.500616 )     1.67524011
  WF centre and spread    9  (  1.591277,  0.916873,  4.687295 )     1.74003142
  WF centre and spread   10  (  1.591332,  0.905524,  4.539825 )     1.67446537
  WF centre and spread   11  (  1.591343,  0.929474,  4.539885 )     1.67523928
  Sum of centres and spreads (  9.547292,  5.504622, 33.222759 )    18.78935032
 
     35    -0.161E-05     0.0014108299       18.7893435746       0.70  <-- CONV
        O_D=      0.0308874 O_OD=      1.0283829 O_TOT=     18.7893436 <-- SPRD
 Delta: O_D=  0.1823332E-05 O_OD= -0.3430608E-05 O_TOT= -0.1607276E-05 <-- DLTA
 ------------------------------------------------------------------------------
 Cycle:     36
  WF centre and spread    1  ( -0.000194, -0.000092,  3.020251 )     1.53951724
  WF centre and spread    2  (  0.000051,  0.045392,  3.020252 )     1.83554994
  WF centre and spread    3  ( -0.000229, -0.045544,  3.020250 )     1.83370251
  WF centre and spread    4  (  0.000010,  0.114579,  3.020252 )     1.70038334
  WF centre and spread    5  ( -0.000249, -0.113455,  3.020250 )     1.70069876
  WF centre and spread    6  (  1.591268,  0.916855,  1.353207 )     1.74003241
  WF centre and spread    7  (  1.591341,  0.905523,  1.500674 )     1.67447313
  WF centre and spread    8  (  1.591342,  0.929492,  1.500614 )     1.67524589
  WF centre and spread    9  (  1.591277,  0.916862,  4.687296 )     1.74002965
  WF centre and spread   10  (  1.591332,  0.905523,  4.539827 )     1.67447078
  WF centre and spread   11  (  1.591343,  0.929486,  4.539887 )     1.67524475
  Sum of centres and spreads (  9.547292,  5.504623, 33.222759 )    18.78934840
 
     36    -0.192E-05     0.0013401216       18.7893416573       0.72  <-- CONV
        O_D=      0.0308893 O_OD=      1.0283791 O_TOT=     18.7893417 <-- SPRD
 Delta: O_D=  0.1901607E-05 O_OD= -0.3818913E-05 O_TOT= -0.1917305E-05 <-- DLTA
 ------------------------------------------------------------------------------
 Cycle:     37
  WF centre and spread    1  ( -0.000194, -0.000093,  3.020251 )     1.53951647
  WF centre and spread    2  (  0.000051,  0.045392,  3.020252 )     1.83554325
  WF centre and spread    3  ( -0.000229, -0.045543,  3.020250 )     1.83369577
  WF centre and spread    4  (  0.000010,  0.114580,  3.020252 )     1.70038512
  WF centre and spread    5  ( -0.000249, -0.113455,  3.020250 )     1.70070072
  WF centre and spread    6  (  1.591268,  0.916854,  1.353207 )     1.74003140
  WF centre and spread    7  (  1.591341,  0.905523,  1.500675 )     1.67447569
  WF centre and spread    8  (  1.591342,  0.929493,  1.500615 )     1.67524839
  WF centre and spread    9  (  1.591277,  0.916861,  4.687296 )     1.74002885
  WF centre and spread   10  (  1.591332,  0.905523,  4.539825 )     1.67447363
  WF centre and spread   11  (  1.591343,  0.929487,  4.539886 )     1.67524741
  Sum of centres and spreads (  9.547292,  5.504623, 33.222759 )    18.78934670
 
     37    -0.170E-05     0.0021924623       18.7893399607       0.73  <-- CONV
        O_D=      0.0308888 O_OD=      1.0283778 O_TOT=     18.7893400 <-- SPRD
 Delta: O_D= -0.4534927E-06 O_OD= -0.1243061E-05 O_TOT= -0.1696554E-05 <-- DLTA
 ------------------------------------------------------------------------------
 Cycle:     38
  WF centre and spread    1  ( -0.000194, -0.000097,  3.020251 )     1.53951580
  WF centre and spread    2  (  0.000051,  0.045390,  3.020252 )     1.83552280
  WF centre and spread    3  ( -0.000229, -0.045542,  3.020250 )     1.83367515
  WF centre and spread    4  (  0.000011,  0.114584,  3.020252 )     1.70039082
  WF centre and spread    5  ( -0.000249, -0.113455,  3.020250 )     1.70070717
  WF centre and spread    6  (  1.591268,  0.916851,  1.353207 )     1.74002876
  WF centre and spread    7  (  1.591341,  0.905523,  1.500679 )     1.67448357
  WF centre and spread    8  (  1.591342,  0.929497,  1.500619 )     1.67525612
  WF centre and spread    9  (  1.591277,  0.916858,  4.687296 )     1.74002691
  WF centre and spread   10  (  1.591332,  0.905523,  4.539822 )     1.67448246
  WF centre and spread   11  (  1.591343,  0.929491,  4.539882 )     1.67525566
  Sum of centres and spreads (  9.547292,  5.504623, 33.222759 )    18.78934524
 
     38    -0.147E-05     0.0012655467       18.7893384943       0.75  <-- CONV
        O_D=      0.0308880 O_OD=      1.0283772 O_TOT=     18.7893385 <-- SPRD
 Delta: O_D= -0.8441679E-06 O_OD= -0.6223107E-06 O_TOT= -0.1466479E-05 <-- DLTA
 ------------------------------------------------------------------------------
 Cycle:     39
  WF centre and spread    1  ( -0.000194, -0.000105,  3.020251 )     1.53951763
  WF centre and spread    2  (  0.000051,  0.045387,  3.020252 )     1.83548978
  WF centre and spread    3  ( -0.000229, -0.045539,  3.020250 )     1.83364176
  WF centre and spread    4  (  0.000011,  0.114593,  3.020251 )     1.70039833
  WF centre and spread    5  ( -0.000250, -0.113455,  3.020250 )     1.70071658
  WF centre and spread    6  (  1.591268,  0.916844,  1.353207 )     1.74002549
  WF centre and spread    7  (  1.591342,  0.905522,  1.500685 )     1.67449575
  WF centre and spread    8  (  1.591343,  0.929504,  1.500625 )     1.67526816
  WF centre and spread    9  (  1.591277,  0.916851,  4.687295 )     1.74002490
  WF centre and spread   10  (  1.591332,  0.905522,  4.539816 )     1.67449632
  WF centre and spread   11  (  1.591342,  0.929498,  4.539876 )     1.67526867
  Sum of centres and spreads (  9.547292,  5.504623, 33.222760 )    18.78934339
 
     39    -0.185E-05     0.0013744488       18.7893366424       0.77  <-- CONV
        O_D=      0.0308870 O_OD=      1.0283764 O_TOT=     18.7893366 <-- SPRD
 Delta: O_D= -0.9861180E-06 O_OD= -0.8657645E-06 O_TOT= -0.1851882E-05 <-- DLTA
 ------------------------------------------------------------------------------
 Cycle:     40
  WF centre and spread    1  ( -0.000194, -0.000118,  3.020251 )     1.53952174
  WF centre and spread    2  (  0.000051,  0.045383,  3.020252 )     1.83545391
  WF centre and spread    3  ( -0.000229, -0.045535,  3.020250 )     1.83360532
  WF centre and spread    4  (  0.000012,  0.114607,  3.020251 )     1.70040320
  WF centre and spread    5  ( -0.000251, -0.113455,  3.020250 )     1.70072503
  WF centre and spread    6  (  1.591268,  0.916833,  1.353208 )     1.74002499
  WF centre and spread    7  (  1.591342,  0.905522,  1.500692 )     1.67450791
  WF centre and spread    8  (  1.591343,  0.929515,  1.500632 )     1.67528024
  WF centre and spread    9  (  1.591276,  0.916840,  4.687295 )     1.74002603
  WF centre and spread   10  (  1.591332,  0.905521,  4.539809 )     1.67451061
  WF centre and spread   11  (  1.591342,  0.929509,  4.539869 )     1.67528201
  Sum of centres and spreads (  9.547292,  5.504623, 33.222760 )    18.78934100
 
     40    -0.238E-05     0.0015995504       18.7893342594       0.79  <-- CONV
        O_D=      0.0308859 O_OD=      1.0283751 O_TOT=     18.7893343 <-- SPRD
 Delta: O_D= -0.1105505E-05 O_OD= -0.1277423E-05 O_TOT= -0.2382928E-05 <-- DLTA
 ------------------------------------------------------------------------------
 Cycle:     41
  WF centre and spread    1  ( -0.000194, -0.000133,  3.020251 )     1.53952478
  WF centre and spread    2  (  0.000051,  0.045381,  3.020252 )     1.83543555
  WF centre and spread    3  ( -0.000229, -0.045532,  3.020250 )     1.83358632
  WF centre and spread    4  (  0.000013,  0.114624,  3.020251 )     1.70040221
  WF centre and spread    5  ( -0.000252, -0.113454,  3.020250 )     1.70072857
  WF centre and spread    6  (  1.591268,  0.916820,  1.353209 )     1.74002872
  WF centre and spread    7  (  1.591342,  0.905522,  1.500698 )     1.67451251
  WF centre and spread    8  (  1.591343,  0.929528,  1.500637 )     1.67528474
  WF centre and spread    9  (  1.591276,  0.916826,  4.687294 )     1.74003094
  WF centre and spread   10  (  1.591332,  0.905521,  4.539804 )     1.67451676
  WF centre and spread   11  (  1.591342,  0.929521,  4.539864 )     1.67528746
  Sum of centres and spreads (  9.547292,  5.504624, 33.222760 )    18.78933855
 
     41    -0.245E-05     0.0017268401       18.7893318100       0.81  <-- CONV
        O_D=      0.0308848 O_OD=      1.0283738 O_TOT=     18.7893318 <-- SPRD
 Delta: O_D= -0.1119905E-05 O_OD= -0.1329490E-05 O_TOT= -0.2449395E-05 <-- DLTA
 ------------------------------------------------------------------------------
 Cycle:     42
  WF centre and spread    1  ( -0.000194, -0.000156,  3.020251 )     1.53952589
  WF centre and spread    2  (  0.000052,  0.045379,  3.020252 )     1.83544018
  WF centre and spread    3  ( -0.000230, -0.045530,  3.020250 )     1.83359017
  WF centre and spread    4  (  0.000015,  0.114647,  3.020251 )     1.70039734
  WF centre and spread    5  ( -0.000254, -0.113454,  3.020250 )     1.70072962
  WF centre and spread    6  (  1.591267,  0.916802,  1.353210 )     1.74003407
  WF centre and spread    7  (  1.591343,  0.905523,  1.500700 )     1.67450739
  WF centre and spread    8  (  1.591343,  0.929545,  1.500639 )     1.67527933
  WF centre and spread    9  (  1.591276,  0.916808,  4.687293 )     1.74003676
  WF centre and spread   10  (  1.591332,  0.905522,  4.539801 )     1.67451233
  WF centre and spread   11  (  1.591342,  0.929539,  4.539862 )     1.67528250
  Sum of centres and spreads (  9.547292,  5.504624, 33.222760 )    18.78933557
 
     42    -0.298E-05     0.0017979481       18.7893288272       0.83  <-- CONV
        O_D=      0.0308836 O_OD=      1.0283720 O_TOT=     18.7893288 <-- SPRD
 Delta: O_D= -0.1183629E-05 O_OD= -0.1799226E-05 O_TOT= -0.2982855E-05 <-- DLTA
 ------------------------------------------------------------------------------
 Cycle:     43
  WF centre and spread    1  ( -0.000194, -0.000157,  3.020251 )     1.53952487
  WF centre and spread    2  (  0.000052,  0.045380,  3.020252 )     1.83545137
  WF centre and spread    3  ( -0.000230, -0.045532,  3.020250 )     1.83360135
  WF centre and spread    4  (  0.000015,  0.114648,  3.020251 )     1.70039673
  WF centre and spread    5  ( -0.000254, -0.113454,  3.020250 )     1.70072890
  WF centre and spread    6  (  1.591267,  0.916800,  1.353209 )     1.74003156
  WF centre and spread    7  (  1.591342,  0.905523,  1.500698 )     1.67450343
  WF centre and spread    8  (  1.591343,  0.929546,  1.500637 )     1.67527523
  WF centre and spread    9  (  1.591276,  0.916806,  4.687294 )     1.74003373
  WF centre and spread   10  (  1.591332,  0.905522,  4.539803 )     1.67450767
  WF centre and spread   11  (  1.591342,  0.929540,  4.539864 )     1.67527800
  Sum of centres and spreads (  9.547292,  5.504624, 33.222760 )    18.78933283
 
     43    -0.274E-05     0.0024840531       18.7893260906       0.84  <-- CONV
        O_D=      0.0308838 O_OD=      1.0283690 O_TOT=     18.7893261 <-- SPRD
 Delta: O_D=  0.1671097E-06 O_OD= -0.2903720E-05 O_TOT= -0.2736610E-05 <-- DLTA
 ------------------------------------------------------------------------------
 Cycle:     44
  WF centre and spread    1  ( -0.000194, -0.000160,  3.020251 )     1.53952277
  WF centre and spread    2  (  0.000052,  0.045383,  3.020252 )     1.83547731
  WF centre and spread    3  ( -0.000230, -0.045534,  3.020250 )     1.83362728
  WF centre and spread    4  (  0.000015,  0.114652,  3.020251 )     1.70039362
  WF centre and spread    5  ( -0.000254, -0.113454,  3.020250 )     1.70072571
  WF centre and spread    6  (  1.591267,  0.916797,  1.353209 )     1.74002843
  WF centre and spread    7  (  1.591342,  0.905523,  1.500693 )     1.67449462
  WF centre and spread    8  (  1.591343,  0.929548,  1.500632 )     1.67526616
  WF centre and spread    9  (  1.591276,  0.916804,  4.687294 )     1.74002939
  WF centre and spread   10  (  1.591333,  0.905523,  4.539808 )     1.67449726
  WF centre and spread   11  (  1.591342,  0.929542,  4.539869 )     1.67526799
  Sum of centres and spreads (  9.547292,  5.504624, 33.222760 )    18.78933054
 
     44    -0.230E-05     0.0017306895       18.7893237955       0.86  <-- CONV
        O_D=      0.0308845 O_OD=      1.0283660 O_TOT=     18.7893238 <-- SPRD
 Delta: O_D=  0.7364483E-06 O_OD= -0.3031495E-05 O_TOT= -0.2295046E-05 <-- DLTA
 ------------------------------------------------------------------------------
 Cycle:     45
  WF centre and spread    1  ( -0.000194, -0.000167,  3.020251 )     1.53952014
  WF centre and spread    2  (  0.000052,  0.045387,  3.020252 )     1.83551420
  WF centre and spread    3  ( -0.000230, -0.045538,  3.020250 )     1.83366411
  WF centre and spread    4  (  0.000015,  0.114658,  3.020251 )     1.70038472
  WF centre and spread    5  ( -0.000254, -0.113454,  3.020250 )     1.70071716
  WF centre and spread    6  (  1.591267,  0.916792,  1.353208 )     1.74002772
  WF centre and spread    7  (  1.591342,  0.905524,  1.500685 )     1.67448245
  WF centre and spread    8  (  1.591343,  0.929553,  1.500625 )     1.67525370
  WF centre and spread    9  (  1.591276,  0.916799,  4.687295 )     1.74002696
  WF centre and spread   10  (  1.591333,  0.905524,  4.539816 )     1.67448278
  WF centre and spread   11  (  1.591343,  0.929547,  4.539876 )     1.67525418
  Sum of centres and spreads (  9.547292,  5.504624, 33.222760 )    18.78932813
 
     45    -0.241E-05     0.0017012873       18.7893213903       0.88  <-- CONV
        O_D=      0.0308859 O_OD=      1.0283622 O_TOT=     18.7893214 <-- SPRD
 Delta: O_D=  0.1386710E-05 O_OD= -0.3791941E-05 O_TOT= -0.2405231E-05 <-- DLTA
 ------------------------------------------------------------------------------
 Cycle:     46
[...]
  WF centre and spread    8  (  1.591345,  0.934650,  1.500458 )     1.67520780
  WF centre and spread    9  (  1.591194,  0.911613,  4.687143 )     1.73996302
  WF centre and spread   10  (  1.591416,  0.905479,  4.539830 )     1.67444640
  WF centre and spread   11  (  1.591345,  0.934646,  4.540042 )     1.67521034
  Sum of centres and spreads (  9.547292,  5.504732, 33.222760 )    18.78810395
 
    988    -0.733E-06     0.0008937553       18.7880972063      15.05  <-- CONV
        O_D=      0.0307312 O_OD=      1.0272927 O_TOT=     18.7880972 <-- SPRD
 Delta: O_D= -0.6648935E-06 O_OD= -0.6791037E-07 O_TOT= -0.7328039E-06 <-- DLTA
 ------------------------------------------------------------------------------
 Cycle:    989
  WF centre and spread    1  ( -0.000112, -0.004998,  3.020251 )     1.54168851
  WF centre and spread    2  (  0.000152,  0.045406,  3.020251 )     1.83557278
  WF centre and spread    3  ( -0.000328, -0.045535,  3.020251 )     1.83352499
  WF centre and spread    4  (  0.000511,  0.119850,  3.020251 )     1.69739576
  WF centre and spread    5  ( -0.000841, -0.113467,  3.020251 )     1.70068442
  WF centre and spread    6  (  1.591188,  0.911601,  1.353361 )     1.73996276
  WF centre and spread    7  (  1.591423,  0.905479,  1.500673 )     1.67444189
  WF centre and spread    8  (  1.591345,  0.934659,  1.500459 )     1.67520772
  WF centre and spread    9  (  1.591194,  0.911605,  4.687142 )     1.73996471
  WF centre and spread   10  (  1.591416,  0.905478,  4.539829 )     1.67444786
  WF centre and spread   11  (  1.591345,  0.934656,  4.540041 )     1.67521168
  Sum of centres and spreads (  9.547292,  5.504732, 33.222760 )    18.78810309
 
    989    -0.858E-06     0.0009462543       18.7880963480      15.06  <-- CONV
        O_D=      0.0307305 O_OD=      1.0272926 O_TOT=     18.7880963 <-- SPRD
 Delta: O_D= -0.6904978E-06 O_OD= -0.1678445E-06 O_TOT= -0.8583423E-06 <-- DLTA
 ------------------------------------------------------------------------------
 Cycle:    990
  WF centre and spread    1  ( -0.000111, -0.005005,  3.020251 )     1.54169692
  WF centre and spread    2  (  0.000152,  0.045406,  3.020251 )     1.83557223
  WF centre and spread    3  ( -0.000329, -0.045535,  3.020251 )     1.83352423
  WF centre and spread    4  (  0.000512,  0.119857,  3.020251 )     1.69738511
  WF centre and spread    5  ( -0.000843, -0.113467,  3.020251 )     1.70068381
  WF centre and spread    6  (  1.591188,  0.911591,  1.353362 )     1.73996392
  WF centre and spread    7  (  1.591423,  0.905478,  1.500673 )     1.67444139
  WF centre and spread    8  (  1.591345,  0.934670,  1.500459 )     1.67520767
  WF centre and spread    9  (  1.591193,  0.911594,  4.687141 )     1.73996627
  WF centre and spread   10  (  1.591416,  0.905477,  4.539828 )     1.67444832
  WF centre and spread   11  (  1.591345,  0.934667,  4.540041 )     1.67521225
  Sum of centres and spreads (  9.547292,  5.504732, 33.222760 )    18.78810212
 
    990    -0.970E-06     0.0011040087       18.7880953775      15.08  <-- CONV
        O_D=      0.0307298 O_OD=      1.0272923 O_TOT=     18.7880954 <-- SPRD
 Delta: O_D= -0.6507355E-06 O_OD= -0.3197372E-06 O_TOT= -0.9704727E-06 <-- DLTA
 ------------------------------------------------------------------------------
 Cycle:    991
  WF centre and spread    1  ( -0.000111, -0.005006,  3.020251 )     1.54169722
  WF centre and spread    2  (  0.000152,  0.045406,  3.020251 )     1.83557296
  WF centre and spread    3  ( -0.000329, -0.045535,  3.020251 )     1.83352475
  WF centre and spread    4  (  0.000513,  0.119858,  3.020251 )     1.69738589
  WF centre and spread    5  ( -0.000843, -0.113467,  3.020251 )     1.70068436
  WF centre and spread    6  (  1.591188,  0.911590,  1.353362 )     1.73996304
  WF centre and spread    7  (  1.591423,  0.905479,  1.500672 )     1.67444158
  WF centre and spread    8  (  1.591345,  0.934670,  1.500459 )     1.67520758
  WF centre and spread    9  (  1.591193,  0.911593,  4.687141 )     1.73996490
  WF centre and spread   10  (  1.591416,  0.905478,  4.539829 )     1.67444742
  WF centre and spread   11  (  1.591345,  0.934667,  4.540042 )     1.67521145
  Sum of centres and spreads (  9.547292,  5.504732, 33.222760 )    18.78810116
 
    991    -0.965E-06     0.0014004751       18.7880944126      15.09  <-- CONV
        O_D=      0.0307296 O_OD=      1.0272915 O_TOT=     18.7880944 <-- SPRD
 Delta: O_D= -0.1945707E-06 O_OD= -0.7703832E-06 O_TOT= -0.9649539E-06 <-- DLTA
 ------------------------------------------------------------------------------
 Cycle:    992
  WF centre and spread    1  ( -0.000111, -0.005007,  3.020251 )     1.54169782
  WF centre and spread    2  (  0.000152,  0.045406,  3.020251 )     1.83557440
  WF centre and spread    3  ( -0.000329, -0.045535,  3.020251 )     1.83352587
  WF centre and spread    4  (  0.000513,  0.119859,  3.020251 )     1.69738629
  WF centre and spread    5  ( -0.000843, -0.113467,  3.020251 )     1.70068489
  WF centre and spread    6  (  1.591188,  0.911588,  1.353361 )     1.73996245
  WF centre and spread    7  (  1.591423,  0.905480,  1.500671 )     1.67444204
  WF centre and spread    8  (  1.591345,  0.934671,  1.500457 )     1.67520760
  WF centre and spread    9  (  1.591193,  0.911591,  4.687142 )     1.73996330
  WF centre and spread   10  (  1.591416,  0.905479,  4.539830 )     1.67444564
  WF centre and spread   11  (  1.591345,  0.934668,  4.540044 )     1.67521000
  Sum of centres and spreads (  9.547292,  5.504733, 33.222760 )    18.78810030
 
    992    -0.851E-06     0.0011025041       18.7880935611      15.10  <-- CONV
        O_D=      0.0307296 O_OD=      1.0272907 O_TOT=     18.7880936 <-- SPRD
 Delta: O_D= -0.5761575E-07 O_OD= -0.7938415E-06 O_TOT= -0.8514572E-06 <-- DLTA
 ------------------------------------------------------------------------------
 Cycle:    993
  WF centre and spread    1  ( -0.000111, -0.005009,  3.020251 )     1.54169879
  WF centre and spread    2  (  0.000152,  0.045406,  3.020251 )     1.83557601
  WF centre and spread    3  ( -0.000329, -0.045536,  3.020251 )     1.83352737
  WF centre and spread    4  (  0.000513,  0.119861,  3.020251 )     1.69738393
  WF centre and spread    5  ( -0.000844, -0.113466,  3.020251 )     1.70068443
  WF centre and spread    6  (  1.591188,  0.911585,  1.353360 )     1.73996347
  WF centre and spread    7  (  1.591423,  0.905481,  1.500669 )     1.67444267
  WF centre and spread    8  (  1.591345,  0.934673,  1.500455 )     1.67520790
  WF centre and spread    9  (  1.591194,  0.911589,  4.687143 )     1.73996305
  WF centre and spread   10  (  1.591416,  0.905481,  4.539832 )     1.67444349
  WF centre and spread   11  (  1.591345,  0.934669,  4.540046 )     1.67520846
  Sum of centres and spreads (  9.547292,  5.504733, 33.222760 )    18.78809958
 
    993    -0.726E-06     0.0009463577       18.7880928348      15.12  <-- CONV
        O_D=      0.0307296 O_OD=      1.0272899 O_TOT=     18.7880928 <-- SPRD
 Delta: O_D=  0.3209888E-07 O_OD= -0.7583968E-06 O_TOT= -0.7262979E-06 <-- DLTA
 ------------------------------------------------------------------------------
 Cycle:    994
  WF centre and spread    1  ( -0.000111, -0.005011,  3.020251 )     1.54170077
  WF centre and spread    2  (  0.000152,  0.045406,  3.020251 )     1.83557735
  WF centre and spread    3  ( -0.000329, -0.045536,  3.020251 )     1.83352889
  WF centre and spread    4  (  0.000514,  0.119863,  3.020251 )     1.69737927
  WF centre and spread    5  ( -0.000844, -0.113467,  3.020251 )     1.70068398
  WF centre and spread    6  (  1.591188,  0.911581,  1.353359 )     1.73996488
  WF centre and spread    7  (  1.591423,  0.905482,  1.500668 )     1.67444329
  WF centre and spread    8  (  1.591345,  0.934675,  1.500453 )     1.67520843
  WF centre and spread    9  (  1.591194,  0.911585,  4.687144 )     1.73996329
  WF centre and spread   10  (  1.591417,  0.905482,  4.539833 )     1.67444151
  WF centre and spread   11  (  1.591345,  0.934672,  4.540048 )     1.67520727
  Sum of centres and spreads (  9.547292,  5.504733, 33.222759 )    18.78809893
 
    994    -0.646E-06     0.0008887073       18.7880921885      15.13  <-- CONV
        O_D=      0.0307295 O_OD=      1.0272894 O_TOT=     18.7880922 <-- SPRD
 Delta: O_D= -0.1328026E-06 O_OD= -0.5135311E-06 O_TOT= -0.6463338E-06 <-- DLTA
 ------------------------------------------------------------------------------
 Cycle:    995
  WF centre and spread    1  ( -0.000111, -0.005014,  3.020251 )     1.54170393
  WF centre and spread    2  (  0.000153,  0.045406,  3.020251 )     1.83557821
  WF centre and spread    3  ( -0.000329, -0.045536,  3.020251 )     1.83352999
  WF centre and spread    4  (  0.000514,  0.119867,  3.020251 )     1.69737404
  WF centre and spread    5  ( -0.000845, -0.113467,  3.020251 )     1.70068418
  WF centre and spread    6  (  1.591187,  0.911576,  1.353358 )     1.73996544
  WF centre and spread    7  (  1.591423,  0.905483,  1.500666 )     1.67444379
  WF centre and spread    8  (  1.591345,  0.934679,  1.500452 )     1.67520899
  WF centre and spread    9  (  1.591194,  0.911580,  4.687145 )     1.73996301
  WF centre and spread   10  (  1.591417,  0.905483,  4.539835 )     1.67444016
  WF centre and spread   11  (  1.591345,  0.934675,  4.540049 )     1.67520661
  Sum of centres and spreads (  9.547292,  5.504733, 33.222759 )    18.78809834
 
    995    -0.590E-06     0.0008783353       18.7880915988      15.14  <-- CONV
        O_D=      0.0307294 O_OD=      1.0272889 O_TOT=     18.7880916 <-- SPRD
 Delta: O_D= -0.8544833E-07 O_OD= -0.5042707E-06 O_TOT= -0.5897190E-06 <-- DLTA
 ------------------------------------------------------------------------------
 Cycle:    996
  WF centre and spread    1  ( -0.000111, -0.005017,  3.020251 )     1.54170804
  WF centre and spread    2  (  0.000153,  0.045406,  3.020251 )     1.83557845
  WF centre and spread    3  ( -0.000329, -0.045536,  3.020251 )     1.83353018
  WF centre and spread    4  (  0.000515,  0.119871,  3.020251 )     1.69736907
  WF centre and spread    5  ( -0.000846, -0.113467,  3.020251 )     1.70068442
  WF centre and spread    6  (  1.591187,  0.911571,  1.353358 )     1.73996515
  WF centre and spread    7  (  1.591423,  0.905483,  1.500666 )     1.67444402
  WF centre and spread    8  (  1.591345,  0.934684,  1.500451 )     1.67520935
  WF centre and spread    9  (  1.591194,  0.911575,  4.687144 )     1.73996255
  WF centre and spread   10  (  1.591417,  0.905483,  4.539835 )     1.67443994
  WF centre and spread   11  (  1.591345,  0.934680,  4.540050 )     1.67520668
  Sum of centres and spreads (  9.547292,  5.504733, 33.222759 )    18.78809784
 
    996    -0.503E-06     0.0007479409       18.7880910954      15.16  <-- CONV
        O_D=      0.0307292 O_OD=      1.0272887 O_TOT=     18.7880911 <-- SPRD
 Delta: O_D= -0.2486757E-06 O_OD= -0.2546827E-06 O_TOT= -0.5033584E-06 <-- DLTA
 ------------------------------------------------------------------------------
 Cycle:    997
  WF centre and spread    1  ( -0.000111, -0.005018,  3.020251 )     1.54170850
  WF centre and spread    2  (  0.000153,  0.045406,  3.020251 )     1.83557824
  WF centre and spread    3  ( -0.000329, -0.045536,  3.020251 )     1.83352982
  WF centre and spread    4  (  0.000515,  0.119871,  3.020251 )     1.69736878
  WF centre and spread    5  ( -0.000846, -0.113467,  3.020251 )     1.70068413
  WF centre and spread    6  (  1.591187,  0.911570,  1.353359 )     1.73996495
  WF centre and spread    7  (  1.591423,  0.905483,  1.500666 )     1.67444388
  WF centre and spread    8  (  1.591345,  0.934685,  1.500451 )     1.67520922
  WF centre and spread    9  (  1.591194,  0.911574,  4.687144 )     1.73996258
  WF centre and spread   10  (  1.591417,  0.905483,  4.539835 )     1.67444033
  WF centre and spread   11  (  1.591345,  0.934681,  4.540050 )     1.67520690
  Sum of centres and spreads (  9.547292,  5.504733, 33.222759 )    18.78809733
 
    997    -0.504E-06     0.0011589877       18.7880905910      15.17  <-- CONV
        O_D=      0.0307290 O_OD=      1.0272884 O_TOT=     18.7880906 <-- SPRD
 Delta: O_D= -0.2010454E-06 O_OD= -0.3033194E-06 O_TOT= -0.5043649E-06 <-- DLTA
 ------------------------------------------------------------------------------
 Cycle:    998
  WF centre and spread    1  ( -0.000111, -0.005019,  3.020251 )     1.54171061
  WF centre and spread    2  (  0.000153,  0.045406,  3.020251 )     1.83557745
  WF centre and spread    3  ( -0.000329, -0.045536,  3.020251 )     1.83352855
  WF centre and spread    4  (  0.000515,  0.119873,  3.020251 )     1.69736796
  WF centre and spread    5  ( -0.000846, -0.113467,  3.020251 )     1.70068391
  WF centre and spread    6  (  1.591187,  0.911568,  1.353360 )     1.73996396
  WF centre and spread    7  (  1.591423,  0.905482,  1.500668 )     1.67444341
  WF centre and spread    8  (  1.591345,  0.934688,  1.500452 )     1.67520888
  WF centre and spread    9  (  1.591193,  0.911572,  4.687143 )     1.73996247
  WF centre and spread   10  (  1.591417,  0.905482,  4.539833 )     1.67444176
  WF centre and spread   11  (  1.591345,  0.934684,  4.540048 )     1.67520781
  Sum of centres and spreads (  9.547292,  5.504733, 33.222759 )    18.78809675
 
    998    -0.582E-06     0.0007454774       18.7880900088      15.18  <-- CONV
        O_D=      0.0307285 O_OD=      1.0272882 O_TOT=     18.7880900 <-- SPRD
 Delta: O_D= -0.4400531E-06 O_OD= -0.1421531E-06 O_TOT= -0.5822062E-06 <-- DLTA
 ------------------------------------------------------------------------------
 Cycle:    999
  WF centre and spread    1  ( -0.000111, -0.005022,  3.020251 )     1.54171446
  WF centre and spread    2  (  0.000153,  0.045406,  3.020251 )     1.83557619
  WF centre and spread    3  ( -0.000329, -0.045536,  3.020251 )     1.83352682
  WF centre and spread    4  (  0.000515,  0.119875,  3.020251 )     1.69736596
  WF centre and spread    5  ( -0.000847, -0.113467,  3.020251 )     1.70068436
  WF centre and spread    6  (  1.591188,  0.911564,  1.353361 )     1.73996225
  WF centre and spread    7  (  1.591423,  0.905481,  1.500669 )     1.67444274
  WF centre and spread    8  (  1.591345,  0.934693,  1.500454 )     1.67520848
  WF centre and spread    9  (  1.591193,  0.911568,  4.687142 )     1.73996196
  WF centre and spread   10  (  1.591417,  0.905480,  4.539832 )     1.67444372
  WF centre and spread   11  (  1.591345,  0.934689,  4.540047 )     1.67520916
  Sum of centres and spreads (  9.547292,  5.504733, 33.222760 )    18.78809611
 
    999    -0.643E-06     0.0008696547       18.7880893662      15.20  <-- CONV
        O_D=      0.0307281 O_OD=      1.0272880 O_TOT=     18.7880894 <-- SPRD
 Delta: O_D= -0.4372897E-06 O_OD= -0.2053261E-06 O_TOT= -0.6426158E-06 <-- DLTA
 ------------------------------------------------------------------------------
 Cycle:   1000
  WF centre and spread    1  ( -0.000110, -0.005026,  3.020251 )     1.54172012
  WF centre and spread    2  (  0.000153,  0.045406,  3.020251 )     1.83557467
  WF centre and spread    3  ( -0.000329, -0.045535,  3.020251 )     1.83352507
  WF centre and spread    4  (  0.000516,  0.119880,  3.020251 )     1.69736081
  WF centre and spread    5  ( -0.000848, -0.113467,  3.020251 )     1.70068481
  WF centre and spread    6  (  1.591188,  0.911559,  1.353363 )     1.73996114
  WF centre and spread    7  (  1.591423,  0.905479,  1.500671 )     1.67444195
  WF centre and spread    8  (  1.591345,  0.934700,  1.500455 )     1.67520821
  WF centre and spread    9  (  1.591193,  0.911562,  4.687140 )     1.73996212
  WF centre and spread   10  (  1.591417,  0.905479,  4.539830 )     1.67444574
  WF centre and spread   11  (  1.591345,  0.934696,  4.540046 )     1.67521074
  Sum of centres and spreads (  9.547292,  5.504733, 33.222760 )    18.78809538
 
   1000    -0.725E-06     0.0008862890       18.7880886416      15.21  <-- CONV
        O_D=      0.0307274 O_OD=      1.0272880 O_TOT=     18.7880886 <-- SPRD
 Delta: O_D= -0.6718433E-06 O_OD= -0.5275276E-07 O_TOT= -0.7245960E-06 <-- DLTA
 ------------------------------------------------------------------------------

 Writing checkpoint file d.chk... done

 Final State
  WF centre and spread    1  ( -0.000110, -0.005026,  3.020251 )     1.54172012
  WF centre and spread    2  (  0.000153,  0.045406,  3.020251 )     1.83557467
  WF centre and spread    3  ( -0.000329, -0.045535,  3.020251 )     1.83352507
  WF centre and spread    4  (  0.000516,  0.119880,  3.020251 )     1.69736081
  WF centre and spread    5  ( -0.000848, -0.113467,  3.020251 )     1.70068481
  WF centre and spread    6  (  1.591188,  0.911559,  1.353363 )     1.73996114
  WF centre and spread    7  (  1.591423,  0.905479,  1.500671 )     1.67444195
  WF centre and spread    8  (  1.591345,  0.934700,  1.500455 )     1.67520821
  WF centre and spread    9  (  1.591193,  0.911562,  4.687140 )     1.73996212
  WF centre and spread   10  (  1.591417,  0.905479,  4.539830 )     1.67444574
  WF centre and spread   11  (  1.591345,  0.934696,  4.540046 )     1.67521074
  Sum of centres and spreads (  9.547292,  5.504733, 33.222760 )    18.78809538
 
         Spreads (Ang^2)       Omega I      =    17.730073278
        ================       Omega D      =     0.030727403
                               Omega OD     =     1.027287960
    Final Spread (Ang^2)       Omega Total  =    18.788088642
 ------------------------------------------------------------------------------

 Wannier centres written to file d_centres.xyz
 Time for wannierise           15.135 (sec)

 Writing checkpoint file d.chk... done

 *---------------------------------------------------------------------------*
 |                               PLOTTING                                    |
 *---------------------------------------------------------------------------*
 
 
 Calculating interpolated band-structure
 
 Time to calculate interpolated band structure       0.510 (sec)
 
      Wannier Function Num:    1       Maximum Im/Re Ratio =    0.000018
      Wannier Function Num:    2       Maximum Im/Re Ratio =    0.000013
      Wannier Function Num:    3       Maximum Im/Re Ratio =    0.000014
      Wannier Function Num:    4       Maximum Im/Re Ratio =    0.000010
      Wannier Function Num:    5       Maximum Im/Re Ratio =    0.000011
      Wannier Function Num:    6       Maximum Im/Re Ratio =    0.000010
      Wannier Function Num:    7       Maximum Im/Re Ratio =    0.000007
      Wannier Function Num:    8       Maximum Im/Re Ratio =    0.000006
      Wannier Function Num:    9       Maximum Im/Re Ratio =    0.000010
      Wannier Function Num:   10       Maximum Im/Re Ratio =    0.000006
      Wannier Function Num:   11       Maximum Im/Re Ratio =    0.000008
  
 Time for plotting            120.600 (sec)
 Total Execution Time         137.945 (sec)

 *===========================================================================*
 |                             TIMING INFORMATION                            |
 *===========================================================================*
 |    Tag                                                Ncalls      Time (s)|
 |---------------------------------------------------------------------------|
 |kmesh: get                                        :         1         0.088|
 |overlap: allocate                                 :         1         0.000|
 |overlap: read                                     :         1         2.029|
 |dis: main                                         :         1         0.050|
 |wann: main                                        :         1        15.135|
 |plot: main                                        :         1       120.600|
 *---------------------------------------------------------------------------*
 
 All done: wannier90 exiting
